
:LABEL1: Calculations in /W/em250772/TiC-test
:LABEL2: on summer at Wed Oct 25 15:53:37 CEST 2017
:LABEL3: using WIEN2k_17.1 (Release 30/6/2017) in /home/em250772/WIEN2k_17
:LABEL4: using the command: run_lapw -i 1
 Flat Integration
 New Mode for Coulomb Integral
 Consistent 3/8+Simpson combinations
 Extension of core to zero
 LDM version in phi
 Fifth-order quadrature in outwin


            ---------
:ITE001:  1. ITERATION
            ---------

:NATO :    2 INDEPENDENT AND    2 TOTAL ATOMS IN UNITCELL
       SUBSTANCE: TiC                                                         

       LATTICE                      = F   
:POT  : POTENTIAL OPTION EX_PBE EC_PBE VX_PBE VC_PBE
:LAT  : LATTICE CONSTANTS=  8.17874  8.17874  8.17874    1.571    1.571    1.571
:VOL  : UNIT CELL VOLUME =     136.77254
       MODE OF CALCULATION IS       = RELA
       NON-SPINPOLARIZED CALCULATION
:IFFT  : FFT-parameters:   64   64   64 Factor: 2.00
       ATOMNUMBER=  1 Ti         VCOUL-ZERO =  0.49268E+00
       ATOMNUMBER=  2 C          VCOUL-ZERO =  0.48622E+00
:FIT001: LUSE= 13 SIGMA OF V-XC FIT FOR ATOM  1  0.1034206E-01
:FIT001: LUSE= 13 SIGMA OF V-XC FIT FOR ATOM  1  0.1034206E-01
:FIT002: LUSE= 13 SIGMA OF V-XC FIT FOR ATOM  2  0.1704607E-02
:FIT002: LUSE= 13 SIGMA OF V-XC FIT FOR ATOM  2  0.1704607E-02
:DEN  : DENSITY INTEGRAL  =          -756.32857393   (Ry)
       ELS_POTENTIAL_AT Z=0 and Z=0.5:  -2.83433  -2.83433
       ELS_POTENTIAL_AT Y=0 and Y=0.5:   0.00000   0.00000
:VZERO:v0,v0c,v0x  -4.04318  -2.83433  -1.20885 v5,v5c,v5x  -4.04318  -2.83433  -1.20885
:VZERY:v0,v0c,v0x  -0.86845   0.00000  -0.86845 v5,v5c,v5x  -0.86845   0.00000  -0.86845
:VZERX:v0,v0c,v0x  -0.86845   0.00000  -0.86845 v5,v5c,v5x  -0.86845   0.00000  -0.86845
:LMAX-WF:   10   Non-Spherical LMAX:   4

          ATOMIC SPHERE DEPENDENT PARAMETERS FOR ATOM  Ti        
:e__0001: OVERALL ENERGY PARAMETER IS    0.3000
          OVERALL BASIS SET ON ATOM IS LAPW
:E0_0001: E( 0)=    0.3000
             APW+lo
:E0_0001: E( 0)=   -3.3048   E(BOTTOM)=   -3.442   E(TOP)=   -3.167  2  3   201
             LOCAL ORBITAL
:E1_0001: E( 1)=    0.3000
             APW+lo
:E1_0001: E( 1)=   -1.5893   E(BOTTOM)=   -1.839   E(TOP)=   -1.340  1  2   197
             LOCAL ORBITAL
:E2_0001: E( 2)=    0.4637   E(BOTTOM)=    0.464   E(TOP)= -200.000  0 -1    96
             APW+lo

          ATOMIC SPHERE DEPENDENT PARAMETERS FOR ATOM  C         
:e__0002: OVERALL ENERGY PARAMETER IS    0.3000
          OVERALL BASIS SET ON ATOM IS LAPW
:E0_0002: E( 0)=    0.7000
             APW+lo
:E0_0002: E( 0)=   -0.7800   E(BOTTOM)=   -1.135   E(TOP)= -200.000  1 -1   159
             LOCAL ORBITAL
:E1_0002: E( 1)=    0.3000
             APW+lo

       K=   0.00000   0.00000   0.00000            1
:RKM  : MATRIX SIZE   155LOs:  18  RKM= 6.89  WEIGHT= 1.00  PGR:    
       EIGENVALUES ARE:
:EIG00001:      -3.2835190   -1.5322983   -1.5322983   -1.5322983   -0.2785782
:EIG00006:       0.7102348    0.7102348    0.7102348    0.8468659    0.8468659
:EIG00011:       0.8468659    0.9385488    0.9385488    1.4097121    1.7300968
       ********************************************************

:KPT   :      NUMBER OF K-POINTS:     8
:GAP (global)   :    0.0    Ry =     0.0   eV (metal)
         Bandranges (emin - emax) and occupancy:
:BAN00001:   1   -3.283519   -3.274840  2.00000000
:BAN00002:   2   -1.578332   -1.532298  2.00000000
:BAN00003:   3   -1.559371   -1.532298  2.00000000
:BAN00004:   4   -1.548341   -1.532298  2.00000000
:BAN00005:   5   -0.278578   -0.039762  2.00000000
:BAN00006:   6    0.238507    0.710235  1.99864814
:BAN00007:   7    0.435178    0.710235  1.99943194
:BAN00008:   8    0.455487    0.710235  1.99943194
:BAN00009:   9    0.643892    1.043580  0.00293971
:BAN00010:  10    0.846866    1.069047 -0.00045174
:BAN00011:  11    0.846866    1.103495  0.00000000
:BAN00012:  12    0.938549    1.283385  0.00000000
:BAN00013:  13    0.938549    1.358524  0.00000000
:BAN00014:  14    1.358524    1.740203  0.00000000
:BAN00015:  15    1.706800    1.860448  0.00000000
        Energy to separate low and high energystates:    0.18851


:NOE  : NUMBER OF ELECTRONS          =  16.000

:FER  : F E R M I - ENERGY(TETRAH.M.)=   0.6813944797
:GMA  : POTENTIAL AND CHARGE CUT-OFF  12.00 Ry**.5




:POS001: ATOM    1 X,Y,Z = 0.00000 0.00000 0.00000  MULT= 1  ZZ= 22.000  Ti        

       LMMAX  5
       LM=   0 0  4 0  4 4  6 0  6 4

:CHA001: TOTAL VALENCE CHARGE INSIDE SPHERE   1 =   9.4003    (RMT=  2.2400 )
:PCS001: PARTIAL CHARGES SPHERE =  1 S,P,D,F,      D-EG,D-T2G 
:QTL001: 2.1522 6.1525 1.0359 0.0490 0.0000 0.0000 0.0000 0.6793 0.3566 0.0000 0.0000 0.0000
        Q-s-low E-s-low   Q-p-low E-p-low   Q-d-low E-d-low   Q-f-low E-f-low
:EPL001:  2.0426 -3.1853    5.9098 -1.5273    0.0940 -0.1019    0.0077 -0.1273
        Q-s-hi  E-s-hi    Q-p-hi  E-p-hi    Q-d-hi  E-d-hi    Q-f-hi  E-f-hi 
:EPH001:  0.1097  0.3567    0.2428  0.4640    0.9418  0.4681    0.0413  0.5301




:POS002: ATOM    2 X,Y,Z = 0.50000 0.50000 0.50000  MULT= 1  ZZ=  6.000  C         

       LMMAX  5
       LM=   0 0  4 0  4 4  6 0  6 4

:CHA002: TOTAL VALENCE CHARGE INSIDE SPHERE   2 =   4.2561    (RMT=  1.8300 )
:PCS002: PARTIAL CHARGES SPHERE =  2 S,P,D,F,      D-EG,D-T2G 
:QTL002: 1.3125 2.9176 0.0201 0.0046 0.0000 0.0000 0.0000 0.0088 0.0113 0.0000 0.0000 0.0000
        Q-s-low E-s-low   Q-p-low E-p-low   Q-d-low E-d-low   Q-f-low E-f-low
:EPL002:  1.2703 -0.1255    0.0268 -1.1082    0.0064 -1.5670    0.0021 -1.6184
        Q-s-hi  E-s-hi    Q-p-hi  E-p-hi    Q-d-hi  E-d-hi    Q-f-hi  E-f-hi 
:EPH002:  0.0422  0.3998    2.8908  0.4759    0.0137  0.4737    0.0025  0.4693

:CHA  : TOTAL VALENCE CHARGE INSIDE UNIT CELL =      16.000000

:SUM  : SUM OF EIGENVALUES =         -13.290245222



   QTL-B VALUE .EQ.    2.76952   in Band of energy    0.96682   ATOM=    1   L=  2
    Most likely no ghostbands, but adjust Energy-parameters for this ATOM and L


:WARN : QTL-B value eq.   2.77 in Band of energy   0.96682  ATOM=    1  L=  2
:WARN : You should change the E-parameter for this atom and L-value in case.in1 (or try the -in1new switch)

        1.ATOM      Ti                    4 CORE STATES
:1S 001: 1S                -356.416941202 Ry
:2S 001: 2S                 -38.077857257 Ry
:2PP001: 2P*                -31.548890450 Ry
:2P 001: 2P                 -31.124682184 Ry

        2.ATOM      C                     1 CORE STATES
:1S 002: 1S                 -18.954794496 Ry
:CINT001 Core Integral Atom   1   10.000000
:CINT002 Core Integral Atom   2    1.999997

       DENSITY AT NUCLEUS
        JATOM        VALENCE       SEMI-CORE          CORE           TOTAL
:RTO001:   1       96.275186        0.000000     8474.077503     8570.352689
:RTO002:   2        5.556929        0.000000      123.698769      129.255698
     
       CHARGES OF NEW CHARGE DENSITY
:NTO   : INTERSTITIAL CHARGE =     2.343601
:NTO001: CHARGE SPHERE  1    =    19.400295
:NTO002: CHARGE SPHERE  2    =     6.256088

:NEC01: NUCLEAR AND ELECTRONIC CHARGE     28.00000    27.99998
     
       CHARGES OF OLD CHARGE DENSITY
:OTO   : INTERSTITIAL CHARGE =     2.397509
:OTO001: CHARGE SPHERE  1    =    20.475145
:OTO002: CHARGE SPHERE  2    =     5.127837

:NEC02: NUCLEAR AND ELECTRONIC CHARGE     28.00000    28.00049
     
       CONVERGENCE TEST
:DTO001: DIFFERENCE IN SPHERE  1 =  0.8443268
:DTO002: DIFFERENCE IN SPHERE  2 =  0.9209982

:DIS  :  CHARGE DISTANCE       (  0.920998 for atom    2 spin 1)       0.882663
 
******************************************************
* MULTISECANT MIXING VER7 RELEASE 7.1.2              *
* Standard Mode with controls                        *
* Upper Bound on PW scaling active                   *
* Regularization       1.000E-04                     *
* Greed Lower Bound    2.500E-02                     *
* Trust Upper Limit    1.200E+01                     *
* Charge change trust active                         *
* Max Number of Memory Steps    8                    *
******************************************************
 
:PLANE:  INTERSTITIAL TOTAL      0.88083 RMS  3.933E-01 , 1.862E+01 %
:CHARG:  CLM CHARGE   /ATOM     51.86789 RMS  2.264E+01 , 3.410E+00 %
 
Step History
      DMIX        Red     Pred      Trust     Lambda    MagRel    MagAbs     Beta
  1  3.50E-02 -1.00E+00  1.00E+00 -1.00E+01  1.00E+00  3.50E-02  3.50E-02  1.00E+00
:INFO :  Note, Pratt in use
:DIRM :  MEMORY  0/ 8 RESCALE    1.00
:MIX  :   PRATT  REGULARIZATION: 1.00E-04  GREED: 0.0250
     
       CHARGES OF MIXED CHARGE DENSITY
:CTO   : INTERSTITIAL CHARGE =     2.395683
:CTO001: CHARGE SPHERE  1    =    20.448274
:CTO002: CHARGE SPHERE  2    =     5.156043

:NEC03: NUCLEAR AND ELECTRONIC CHARGE     28.00000    28.00000

PW CHANGE     H    K    L      Current       Change    Residue
:PTO001:      0    0    0  6.40728834E-02  1.017E-04  4.068E-03
:PTO002:     -1   -1   -1 -2.07146503E-02 -3.397E-04 -1.359E-02
:PTO003:      0    0   -2  8.61792402E-02  5.316E-04  2.126E-02
:PTO004:      0   -2   -2  5.78092563E-02  1.166E-04  4.662E-03
:PTO005:     -1   -1   -3 -1.31784697E-02  9.389E-04  3.756E-02
:PTO006:     -2   -2   -2  1.19900847E-02 -1.082E-04 -4.328E-03
:PTO007:      0    0   -4  1.91967921E-03 -1.857E-05 -7.428E-04
:PTO008:     -1   -3   -3 -2.39015153E-03  2.342E-04  9.370E-03
:PTO009:      0   -2   -4 -1.62122496E-03 -2.790E-04 -1.116E-02
:PTO010:     -2   -2   -4 -3.48609304E-03 -2.994E-04 -1.197E-02
:PTO011:     -3   -3   -3  4.35194989E-04 -5.620E-06 -2.248E-04
:PTO012:     -1   -1   -5  1.36676955E-03  4.432E-05  1.773E-03

:ENE  : *WARNING** TOTAL ENERGY IN Ry =        -1784.11451470


:LABEL1: Calculations in /W/em250772/TiC-test
:LABEL2: on summer at Wed Oct 25 16:07:40 CEST 2017
:LABEL3: using WIEN2k_17.1 (Release 30/6/2017) in /home/em250772/WIEN2k_17
:LABEL4: using the command: run_lapw -i 2

:LABEL1: Calculations in /W/em250772/TiC-test
:LABEL2: on summer at Wed Oct 25 16:07:45 CEST 2017
:LABEL3: using WIEN2k_17.1 (Release 30/6/2017) in /home/em250772/WIEN2k_17
:LABEL4: using the command: run_lapw -i 2
 Flat Integration
 New Mode for Coulomb Integral
 Consistent 3/8+Simpson combinations
 Extension of core to zero
 LDM version in phi
 Fifth-order quadrature in outwin


            ---------
:ITE002:  2. ITERATION
            ---------

:NATO :    2 INDEPENDENT AND    2 TOTAL ATOMS IN UNITCELL
       SUBSTANCE: TiC                                                         

       LATTICE                      = F   
:POT  : POTENTIAL OPTION EX_PBE EC_PBE VX_PBE VC_PBE
:LAT  : LATTICE CONSTANTS=  8.17874  8.17874  8.17874    1.571    1.571    1.571
:VOL  : UNIT CELL VOLUME =     136.77254
       MODE OF CALCULATION IS       = RELA
       NON-SPINPOLARIZED CALCULATION
:IFFT  : FFT-parameters:   64   64   64 Factor: 2.00
       ATOMNUMBER=  1 Ti         VCOUL-ZERO =  0.49153E+00
       ATOMNUMBER=  2 C          VCOUL-ZERO =  0.49387E+00
:FIT001: LUSE= 13 SIGMA OF V-XC FIT FOR ATOM  1  0.1067665E-01
:FIT001: LUSE= 13 SIGMA OF V-XC FIT FOR ATOM  1  0.1067665E-01
:FIT002: LUSE= 13 SIGMA OF V-XC FIT FOR ATOM  2  0.1653711E-02
:FIT002: LUSE= 13 SIGMA OF V-XC FIT FOR ATOM  2  0.1653711E-02
:DEN  : DENSITY INTEGRAL  =          -755.97004247   (Ry)
       ELS_POTENTIAL_AT Z=0 and Z=0.5:  -2.83287  -2.83287
       ELS_POTENTIAL_AT Y=0 and Y=0.5:   0.00000   0.00000
:VZERO:v0,v0c,v0x  -4.04380  -2.83287  -1.21093 v5,v5c,v5x  -4.04380  -2.83287  -1.21093
:VZERY:v0,v0c,v0x  -0.86845   0.00000  -0.86845 v5,v5c,v5x  -0.86845   0.00000  -0.86845
:VZERX:v0,v0c,v0x  -0.86845   0.00000  -0.86845 v5,v5c,v5x  -0.86845   0.00000  -0.86845
:LMAX-WF:   10   Non-Spherical LMAX:   4

          ATOMIC SPHERE DEPENDENT PARAMETERS FOR ATOM  Ti        
:e__0001: OVERALL ENERGY PARAMETER IS    0.4209
          OVERALL BASIS SET ON ATOM IS LAPW
:E0_0001: E( 0)=    0.4209
             APW+lo
:E0_0001: E( 0)=   -3.3234   E(BOTTOM)=   -3.460   E(TOP)=   -3.187  2  3   197
             LOCAL ORBITAL
:E1_0001: E( 1)=    0.4209
             APW+lo
:E1_0001: E( 1)=   -1.6065   E(BOTTOM)=   -1.854   E(TOP)=   -1.359  1  2   196
             LOCAL ORBITAL
:E2_0001: E( 2)=    0.4525   E(BOTTOM)=    0.452   E(TOP)= -200.000  0 -1    84
             APW+lo

          ATOMIC SPHERE DEPENDENT PARAMETERS FOR ATOM  C         
:e__0002: OVERALL ENERGY PARAMETER IS    0.4209
          OVERALL BASIS SET ON ATOM IS LAPW
:E0_0002: E( 0)=    0.8209
             APW+lo
:E0_0002: E( 0)=   -0.7800   E(BOTTOM)=   -1.122   E(TOP)= -200.000  1 -1   157
             LOCAL ORBITAL
:E1_0002: E( 1)=    0.4209
             APW+lo

       K=   0.00000   0.00000   0.00000            1
:RKM  : MATRIX SIZE   155LOs:  18  RKM= 6.89  WEIGHT= 1.00  PGR:    
       EIGENVALUES ARE:
:EIG00001:      -3.3021131   -1.5497522   -1.5497522   -1.5497522   -0.2710615
:EIG00006:       0.7230817    0.7230817    0.7230817    0.8369864    0.8369864
:EIG00011:       0.8369864    0.9271164    0.9271164    1.4161502    1.7298232
       ********************************************************

:KPT   :      NUMBER OF K-POINTS:     8
:GAP (global)   :    0.0    Ry =     0.0   eV (metal)
         Bandranges (emin - emax) and occupancy:
:BAN00001:   1   -3.302113   -3.293584  2.00000000
:BAN00002:   2   -1.594693   -1.549752  2.00000000
:BAN00003:   3   -1.576245   -1.549752  2.00000000
:BAN00004:   4   -1.565446   -1.549752  2.00000000
:BAN00005:   5   -0.271061   -0.030308  2.00000000
:BAN00006:   6    0.242647    0.723082  1.99760497
:BAN00007:   7    0.439971    0.723082  1.99866965
:BAN00008:   8    0.461947    0.723082  1.99866965
:BAN00009:   9    0.637399    1.030266  0.00575876
:BAN00010:  10    0.836986    1.054873 -0.00070302
:BAN00011:  11    0.836986    1.088430  0.00000000
:BAN00012:  12    0.927116    1.285150  0.00000000
:BAN00013:  13    0.927116    1.352104  0.00000000
:BAN00014:  14    1.352104    1.738448  0.00000000
:BAN00015:  15    1.702636    1.853373  0.00000000
        Energy to separate low and high energystates:    0.19265


:NOE  : NUMBER OF ELECTRONS          =  16.000

:FER  : F E R M I - ENERGY(TETRAH.M.)=   0.6849558779
:GMA  : POTENTIAL AND CHARGE CUT-OFF  12.00 Ry**.5




:POS001: ATOM    1 X,Y,Z = 0.00000 0.00000 0.00000  MULT= 1  ZZ= 22.000  Ti        

       LMMAX  5
       LM=   0 0  4 0  4 4  6 0  6 4

:CHA001: TOTAL VALENCE CHARGE INSIDE SPHERE   1 =   9.4599    (RMT=  2.2400 )
:PCS001: PARTIAL CHARGES SPHERE =  1 S,P,D,F,      D-EG,D-T2G 
:QTL001: 2.1537 6.1560 1.0914 0.0484 0.0000 0.0000 0.0000 0.7089 0.3825 0.0000 0.0000 0.0000
        Q-s-low E-s-low   Q-p-low E-p-low   Q-d-low E-d-low   Q-f-low E-f-low
:EPL001:  2.0439 -3.2015    5.9133 -1.5441    0.0965 -0.0922    0.0076 -0.1172
        Q-s-hi  E-s-hi    Q-p-hi  E-p-hi    Q-d-hi  E-d-hi    Q-f-hi  E-f-hi 
:EPH001:  0.1097  0.3616    0.2427  0.4697    0.9949  0.4742    0.0407  0.5370




:POS002: ATOM    2 X,Y,Z = 0.50000 0.50000 0.50000  MULT= 1  ZZ=  6.000  C         

       LMMAX  5
       LM=   0 0  4 0  4 4  6 0  6 4

:CHA002: TOTAL VALENCE CHARGE INSIDE SPHERE   2 =   4.1820    (RMT=  1.8300 )
:PCS002: PARTIAL CHARGES SPHERE =  2 S,P,D,F,      D-EG,D-T2G 
:QTL002: 1.3036 2.8516 0.0208 0.0046 0.0000 0.0000 0.0000 0.0089 0.0119 0.0000 0.0000 0.0000
        Q-s-low E-s-low   Q-p-low E-p-low   Q-d-low E-d-low   Q-f-low E-f-low
:EPL002:  1.2609 -0.1161    0.0265 -1.0982    0.0063 -1.5766    0.0021 -1.6295
        Q-s-hi  E-s-hi    Q-p-hi  E-p-hi    Q-d-hi  E-d-hi    Q-f-hi  E-f-hi 
:EPH002:  0.0427  0.4050    2.8251  0.4818    0.0145  0.4804    0.0026  0.4753

:CHA  : TOTAL VALENCE CHARGE INSIDE UNIT CELL =      16.000000

:SUM  : SUM OF EIGENVALUES =         -13.378339076



   QTL-B VALUE .EQ.    2.87995   in Band of energy    0.96068   ATOM=    1   L=  2
    Most likely no ghostbands, but adjust Energy-parameters for this ATOM and L


:WARN : QTL-B value eq.   2.88 in Band of energy   0.96068  ATOM=    1  L=  2
:WARN : You should change the E-parameter for this atom and L-value in case.in1 (or try the -in1new switch)

        1.ATOM      Ti                    4 CORE STATES
:1S 001: 1S                -356.447666204 Ry
:2S 001: 2S                 -38.107508074 Ry
:2PP001: 2P*                -31.578780301 Ry
:2P 001: 2P                 -31.154550880 Ry

        2.ATOM      C                     1 CORE STATES
:1S 002: 1S                 -18.923268527 Ry
:CINT001 Core Integral Atom   1   10.000000
:CINT002 Core Integral Atom   2    1.999997

       DENSITY AT NUCLEUS
        JATOM        VALENCE       SEMI-CORE          CORE           TOTAL
:RTO001:   1       96.444398        0.000000     8474.113184     8570.557581
:RTO002:   2        5.491447        0.000000      123.688202      129.179649
     
       CHARGES OF NEW CHARGE DENSITY
:NTO   : INTERSTITIAL CHARGE =     2.358143
:NTO001: CHARGE SPHERE  1    =    19.459886
:NTO002: CHARGE SPHERE  2    =     6.181955

:NEC01: NUCLEAR AND ELECTRONIC CHARGE     28.00000    27.99998
     
       CHARGES OF OLD CHARGE DENSITY
:OTO   : INTERSTITIAL CHARGE =     2.395683
:OTO001: CHARGE SPHERE  1    =    20.448274
:OTO002: CHARGE SPHERE  2    =     5.156043

:NEC02: NUCLEAR AND ELECTRONIC CHARGE     28.00000    28.00000
     
       CONVERGENCE TEST
:DTO001: DIFFERENCE IN SPHERE  1 =  0.7738599
:DTO002: DIFFERENCE IN SPHERE  2 =  0.8332713

:DIS  :  CHARGE DISTANCE       (  0.833271 for atom    2 spin 1)       0.803566
 
******************************************************
* MULTISECANT MIXING VER7 RELEASE 7.1.2              *
* Standard Mode with controls                        *
* Upper Bound on PW scaling active                   *
* Regularization       1.000E-04                     *
* Greed Lower Bound    2.500E-02                     *
* Trust Upper Limit    1.200E+01                     *
* Charge change trust active                         *
* Max Number of Memory Steps    8                    *
******************************************************
 
:PLANE:  INTERSTITIAL TOTAL      0.88314 RMS  3.656E-01 , 1.728E+01 %
:CHARG:  CLM CHARGE   /ATOM     51.86334 RMS  2.114E+01 , 3.184E+00 %
 
Step History
      DMIX        Red     Pred      Trust     Lambda    MagRel    MagAbs     Beta
  1  3.50E-02 -1.00E+00  1.00E+00 -1.00E+01  1.00E+00  3.50E-02  3.50E-02  1.00E+00
:INFO :  Note, Pratt in use
:DIRM :  MEMORY  0/ 8 RESCALE    1.00
:MIX  :   PRATT  REGULARIZATION: 1.00E-04  GREED: 0.0250
     
       CHARGES OF MIXED CHARGE DENSITY
:CTO   : INTERSTITIAL CHARGE =     2.394744
:CTO001: CHARGE SPHERE  1    =    20.423564
:CTO002: CHARGE SPHERE  2    =     5.181691

:NEC03: NUCLEAR AND ELECTRONIC CHARGE     28.00000    28.00000

PW CHANGE     H    K    L      Current       Change    Residue
:PTO001:      0    0    0  6.41688478E-02  9.596E-05  3.839E-03
:PTO002:     -1   -1   -1 -2.09984985E-02 -2.838E-04 -1.135E-02
:PTO003:      0    0   -2  8.66641646E-02  4.849E-04  1.940E-02
:PTO004:      0   -2   -2  5.78955661E-02  8.631E-05  3.452E-03
:PTO005:     -1   -1   -3 -1.22589731E-02  9.195E-04  3.678E-02
:PTO006:     -2   -2   -2  1.18788658E-02 -1.112E-04 -4.449E-03
:PTO007:      0    0   -4  1.90392071E-03 -1.576E-05 -6.303E-04
:PTO008:     -1   -3   -3 -2.17077865E-03  2.194E-04  8.775E-03
:PTO009:      0   -2   -4 -1.88470283E-03 -2.635E-04 -1.054E-02
:PTO010:     -2   -2   -4 -3.77072005E-03 -2.846E-04 -1.139E-02
:PTO011:     -3   -3   -3  4.27677406E-04 -7.518E-06 -3.007E-04
:PTO012:     -1   -1   -5  1.40696485E-03  4.020E-05  1.608E-03

:ENE  : *WARNING** TOTAL ENERGY IN Ry =        -1784.08103128


:LABEL1: Calculations in /W/em250772/TiC-test
:LABEL2: on summer at Thu Oct 26 13:46:48 CEST 2017
:LABEL3: using WIEN2k_17.1 (Release 30/6/2017) in /home/em250772/WIEN2k_17
:LABEL4: using the command: run

:LABEL1: Calculations in /W/em250772/TiC-test
:LABEL2: on summer at Thu Oct 26 13:46:52 CEST 2017
:LABEL3: using WIEN2k_17.1 (Release 30/6/2017) in /home/em250772/WIEN2k_17
:LABEL4: using the command: run_lapw
 Flat Integration
 New Mode for Coulomb Integral
 Consistent 3/8+Simpson combinations
 Extension of core to zero
 LDM version in phi
 Fifth-order quadrature in outwin


            ---------
:ITE003:  3. ITERATION
            ---------

:NATO :    2 INDEPENDENT AND    2 TOTAL ATOMS IN UNITCELL
       SUBSTANCE: TiC                                                         

       LATTICE                      = F   
:POT  : POTENTIAL OPTION EX_PBE EC_PBE VX_PBE VC_PBE
:LAT  : LATTICE CONSTANTS=  8.17874  8.17874  8.17874    1.571    1.571    1.571
:VOL  : UNIT CELL VOLUME =     136.77254
       MODE OF CALCULATION IS       = RELA
       NON-SPINPOLARIZED CALCULATION
:IFFT  : FFT-parameters:   64   64   64 Factor: 2.00
       ATOMNUMBER=  1 Ti         VCOUL-ZERO =  0.49060E+00
       ATOMNUMBER=  2 C          VCOUL-ZERO =  0.50101E+00
:FIT001: LUSE= 13 SIGMA OF V-XC FIT FOR ATOM  1  0.1098130E-01
:FIT001: LUSE= 13 SIGMA OF V-XC FIT FOR ATOM  1  0.1098130E-01
:FIT002: LUSE= 13 SIGMA OF V-XC FIT FOR ATOM  2  0.1605796E-02
:FIT002: LUSE= 13 SIGMA OF V-XC FIT FOR ATOM  2  0.1605796E-02
:DEN  : DENSITY INTEGRAL  =          -755.64634882   (Ry)
       ELS_POTENTIAL_AT Z=0 and Z=0.5:  -2.83222  -2.83222
       ELS_POTENTIAL_AT Y=0 and Y=0.5:   0.00000   0.00000
:VZERO:v0,v0c,v0x  -4.04525  -2.83222  -1.21303 v5,v5c,v5x  -4.04525  -2.83222  -1.21303
:VZERY:v0,v0c,v0x  -0.86852   0.00000  -0.86852 v5,v5c,v5x  -0.86852   0.00000  -0.86852
:VZERX:v0,v0c,v0x  -0.86852   0.00000  -0.86852 v5,v5c,v5x  -0.86852   0.00000  -0.86852
:LMAX-WF:   10   Non-Spherical LMAX:   4

          ATOMIC SPHERE DEPENDENT PARAMETERS FOR ATOM  Ti        
:e__0001: OVERALL ENERGY PARAMETER IS    0.4636
          OVERALL BASIS SET ON ATOM IS LAPW
:E0_0001: E( 0)=    0.4636
             APW+lo
:E0_0001: E( 0)=   -3.3403   E(BOTTOM)=   -3.476   E(TOP)=   -3.205  2  3   196
             LOCAL ORBITAL
:E1_0001: E( 1)=    0.4636
             APW+lo
:E1_0001: E( 1)=   -1.6221   E(BOTTOM)=   -1.868   E(TOP)=   -1.376  1  2   194
             LOCAL ORBITAL
:E2_0001: E( 2)=    0.4636   E(BOTTOM)=    0.442   E(TOP)= -200.000  0 -1    83
             APW+lo

          ATOMIC SPHERE DEPENDENT PARAMETERS FOR ATOM  C         
:e__0002: OVERALL ENERGY PARAMETER IS    0.4636
          OVERALL BASIS SET ON ATOM IS LAPW
:E0_0002: E( 0)=    0.8636
             APW+lo
:E0_0002: E( 0)=   -0.7800   E(BOTTOM)=   -1.109   E(TOP)= -200.000  1 -1   155
             LOCAL ORBITAL
:E1_0002: E( 1)=    0.4636
             APW+lo

       K=   0.00000   0.00000   0.00000            1
:RKM  : MATRIX SIZE   155LOs:  18  RKM= 6.89  WEIGHT= 1.00  PGR:    
       EIGENVALUES ARE:
:EIG00001:      -3.3190313   -1.5656348   -1.5656348   -1.5656348   -0.2641310
:EIG00006:       0.7348929    0.7348929    0.7348929    0.8279375    0.8279375
:EIG00011:       0.8279375    0.9165943    0.9165943    1.4222228    1.7298183
       ********************************************************

:KPT   :      NUMBER OF K-POINTS:     8
:GAP (global)   :    0.0    Ry =     0.0   eV (metal)
         Bandranges (emin - emax) and occupancy:
:BAN00001:   1   -3.319031   -3.310643  2.00000000
:BAN00002:   2   -1.609595   -1.565635  2.00000000
:BAN00003:   3   -1.591618   -1.565635  2.00000000
:BAN00004:   4   -1.581011   -1.565635  2.00000000
:BAN00005:   5   -0.264131   -0.021600  2.00000000
:BAN00006:   6    0.246430    0.734893  1.99639007
:BAN00007:   7    0.444271    0.734893  1.99760281
:BAN00008:   8    0.467723    0.734893  1.99760281
:BAN00009:   9    0.631513    1.017917  0.00936048
:BAN00010:  10    0.827938    1.041721 -0.00095616
:BAN00011:  11    0.827938    1.074423  0.00000000
:BAN00012:  12    0.916594    1.286988  0.00000000
:BAN00013:  13    0.916594    1.346146  0.00000000
:BAN00014:  14    1.346146    1.736966  0.00000000
:BAN00015:  15    1.698707    1.845811  0.00000000
        Energy to separate low and high energystates:    0.19643


:NOE  : NUMBER OF ELECTRONS          =  16.000

:FER  : F E R M I - ENERGY(TETRAH.M.)=   0.6878960446
:GMA  : POTENTIAL AND CHARGE CUT-OFF  12.00 Ry**.5




:POS001: ATOM    1 X,Y,Z = 0.00000 0.00000 0.00000  MULT= 1  ZZ= 22.000  Ti        

       LMMAX  5
       LM=   0 0  4 0  4 4  6 0  6 4

:CHA001: TOTAL VALENCE CHARGE INSIDE SPHERE   1 =   9.5175    (RMT=  2.2400 )
:PCS001: PARTIAL CHARGES SPHERE =  1 S,P,D,F,      D-EG,D-T2G 
:QTL001: 2.1549 6.1589 1.1458 0.0477 0.0000 0.0000 0.0000 0.7373 0.4085 0.0000 0.0000 0.0000
        Q-s-low E-s-low   Q-p-low E-p-low   Q-d-low E-d-low   Q-f-low E-f-low
:EPL001:  2.0451 -3.2163    5.9165 -1.5593    0.0990 -0.0833    0.0076 -0.1080
        Q-s-hi  E-s-hi    Q-p-hi  E-p-hi    Q-d-hi  E-d-hi    Q-f-hi  E-f-hi 
:EPH001:  0.1097  0.3659    0.2424  0.4748    1.0468  0.4796    0.0402  0.5429




:POS002: ATOM    2 X,Y,Z = 0.50000 0.50000 0.50000  MULT= 1  ZZ=  6.000  C         

       LMMAX  5
       LM=   0 0  4 0  4 4  6 0  6 4

:CHA002: TOTAL VALENCE CHARGE INSIDE SPHERE   2 =   4.1119    (RMT=  1.8300 )
:PCS002: PARTIAL CHARGES SPHERE =  2 S,P,D,F,      D-EG,D-T2G 
:QTL002: 1.2953 2.7891 0.0214 0.0047 0.0000 0.0000 0.0000 0.0089 0.0125 0.0000 0.0000 0.0000
        Q-s-low E-s-low   Q-p-low E-p-low   Q-d-low E-d-low   Q-f-low E-f-low
:EPL002:  1.2521 -0.1075    0.0262 -1.0876    0.0062 -1.5849    0.0021 -1.6393
        Q-s-hi  E-s-hi    Q-p-hi  E-p-hi    Q-d-hi  E-d-hi    Q-f-hi  E-f-hi 
:EPH002:  0.0431  0.4095    2.7629  0.4868    0.0152  0.4866    0.0027  0.4807

:CHA  : TOTAL VALENCE CHARGE INSIDE UNIT CELL =      16.000000

:SUM  : SUM OF EIGENVALUES =         -13.459334422



   QTL-B VALUE .EQ.    2.78651   in Band of energy    0.95503   ATOM=    1   L=  2
    Most likely no ghostbands, but adjust Energy-parameters for this ATOM and L


:WARN : QTL-B value eq.   2.79 in Band of energy   0.95503  ATOM=    1  L=  2
:WARN : You should change the E-parameter for this atom and L-value in case.in1 (or try the -in1new switch)

        1.ATOM      Ti                    4 CORE STATES
:1S 001: 1S                -356.475438758 Ry
:2S 001: 2S                 -38.134439418 Ry
:2PP001: 2P*                -31.605913793 Ry
:2P 001: 2P                 -31.181666132 Ry

        2.ATOM      C                     1 CORE STATES
:1S 002: 1S                 -18.894810814 Ry
:CINT001 Core Integral Atom   1   10.000000
:CINT002 Core Integral Atom   2    1.999997

       DENSITY AT NUCLEUS
        JATOM        VALENCE       SEMI-CORE          CORE           TOTAL
:RTO001:   1       96.601718        0.000000     8474.144029     8570.745746
:RTO002:   2        5.431798        0.000000      123.679207      129.111004
     
       CHARGES OF NEW CHARGE DENSITY
:NTO   : INTERSTITIAL CHARGE =     2.370557
:NTO001: CHARGE SPHERE  1    =    19.517529
:NTO002: CHARGE SPHERE  2    =     6.111898

:NEC01: NUCLEAR AND ELECTRONIC CHARGE     28.00000    27.99998
     
       CHARGES OF OLD CHARGE DENSITY
:OTO   : INTERSTITIAL CHARGE =     2.394744
:OTO001: CHARGE SPHERE  1    =    20.423564
:OTO002: CHARGE SPHERE  2    =     5.181691

:NEC02: NUCLEAR AND ELECTRONIC CHARGE     28.00000    28.00000
     
       CONVERGENCE TEST
:DTO001: DIFFERENCE IN SPHERE  1 =  0.7069715
:DTO002: DIFFERENCE IN SPHERE  2 =  0.7516333

:DIS  :  CHARGE DISTANCE       (  0.751633 for atom    2 spin 1)       0.729302
 
******************************************************
* MULTISECANT MIXING VER7 RELEASE 7.1.2              *
* Standard Mode with controls                        *
* Upper Bound on PW scaling active                   *
* Regularization       1.000E-04                     *
* Greed Lower Bound    2.500E-02                     *
* Trust Upper Limit    1.200E+01                     *
* Charge change trust active                         *
* Max Number of Memory Steps    8                    *
******************************************************
 
:PLANE:  INTERSTITIAL TOTAL      0.88526 RMS  3.404E-01 , 1.606E+01 %
:CHARG:  CLM CHARGE   /ATOM     51.85925 RMS  1.975E+01 , 2.975E+00 %
 
Step History
      DMIX        Red     Pred      Trust     Lambda    MagRel    MagAbs     Beta
  1  3.50E-02 -1.00E+00  1.00E+00 -1.00E+01  1.00E+00  3.50E-02  3.50E-02  1.00E+00
:INFO :  Note, Pratt in use
:DIRM :  MEMORY  0/ 8 RESCALE    1.00
:MIX  :   PRATT  REGULARIZATION: 1.00E-04  GREED: 0.0250
     
       CHARGES OF MIXED CHARGE DENSITY
:CTO   : INTERSTITIAL CHARGE =     2.394140
:CTO001: CHARGE SPHERE  1    =    20.400913
:CTO002: CHARGE SPHERE  2    =     5.204946

:NEC03: NUCLEAR AND ELECTRONIC CHARGE     28.00000    28.00000

PW CHANGE     H    K    L      Current       Change    Residue
:PTO001:      0    0    0  6.42591146E-02  9.027E-05  3.611E-03
:PTO002:     -1   -1   -1 -2.12302809E-02 -2.318E-04 -9.271E-03
:PTO003:      0    0   -2  8.71059794E-02  4.418E-04  1.767E-02
:PTO004:      0   -2   -2  5.79549952E-02  5.943E-05  2.377E-03
:PTO005:     -1   -1   -3 -1.13605322E-02  8.984E-04  3.594E-02
:PTO006:     -2   -2   -2  1.17654877E-02 -1.134E-04 -4.535E-03
:PTO007:      0    0   -4  1.89079968E-03 -1.312E-05 -5.248E-04
:PTO008:     -1   -3   -3 -1.96588908E-03  2.049E-04  8.196E-03
:PTO009:      0   -2   -4 -2.13347536E-03 -2.488E-04 -9.951E-03
:PTO010:     -2   -2   -4 -4.04136869E-03 -2.706E-04 -1.083E-02
:PTO011:     -3   -3   -3  4.18423391E-04 -9.254E-06 -3.702E-04
:PTO012:     -1   -1   -5  1.44324197E-03  3.628E-05  1.451E-03

:ENE  : *WARNING** TOTAL ENERGY IN Ry =        -1784.05355334

 Flat Integration
 New Mode for Coulomb Integral
 Consistent 3/8+Simpson combinations
 Extension of core to zero
 LDM version in phi
 Fifth-order quadrature in outwin


            ---------
:ITE004:  4. ITERATION
            ---------

:NATO :    2 INDEPENDENT AND    2 TOTAL ATOMS IN UNITCELL
       SUBSTANCE: TiC                                                         

       LATTICE                      = F   
:POT  : POTENTIAL OPTION EX_PBE EC_PBE VX_PBE VC_PBE
:LAT  : LATTICE CONSTANTS=  8.17874  8.17874  8.17874    1.571    1.571    1.571
:VOL  : UNIT CELL VOLUME =     136.77254
       MODE OF CALCULATION IS       = RELA
       NON-SPINPOLARIZED CALCULATION
:IFFT  : FFT-parameters:   64   64   64 Factor: 2.00
       ATOMNUMBER=  1 Ti         VCOUL-ZERO =  0.48978E+00
       ATOMNUMBER=  2 C          VCOUL-ZERO =  0.50758E+00
:FIT001: LUSE= 13 SIGMA OF V-XC FIT FOR ATOM  1  0.1125774E-01
:FIT001: LUSE= 13 SIGMA OF V-XC FIT FOR ATOM  1  0.1125774E-01
:FIT002: LUSE= 13 SIGMA OF V-XC FIT FOR ATOM  2  0.1560980E-02
:FIT002: LUSE= 13 SIGMA OF V-XC FIT FOR ATOM  2  0.1560980E-02
:DEN  : DENSITY INTEGRAL  =          -755.35273683   (Ry)
       ELS_POTENTIAL_AT Z=0 and Z=0.5:  -2.83176  -2.83176
       ELS_POTENTIAL_AT Y=0 and Y=0.5:   0.00000   0.00000
:VZERO:v0,v0c,v0x  -4.04675  -2.83176  -1.21499 v5,v5c,v5x  -4.04675  -2.83176  -1.21499
:VZERY:v0,v0c,v0x  -0.86859   0.00000  -0.86859 v5,v5c,v5x  -0.86859   0.00000  -0.86859
:VZERX:v0,v0c,v0x  -0.86859   0.00000  -0.86859 v5,v5c,v5x  -0.86859   0.00000  -0.86859
:LMAX-WF:   10   Non-Spherical LMAX:   4

          ATOMIC SPHERE DEPENDENT PARAMETERS FOR ATOM  Ti        
:e__0001: OVERALL ENERGY PARAMETER IS    0.4798
          OVERALL BASIS SET ON ATOM IS LAPW
:E0_0001: E( 0)=    0.4798
             APW+lo
:E0_0001: E( 0)=   -3.3556   E(BOTTOM)=   -3.490   E(TOP)=   -3.221  2  3   199
             LOCAL ORBITAL
:E1_0001: E( 1)=    0.4798
             APW+lo
:E1_0001: E( 1)=   -1.6364   E(BOTTOM)=   -1.881   E(TOP)=   -1.392  1  2   196
             LOCAL ORBITAL
:E2_0001: E( 2)=    0.4798   E(BOTTOM)=    0.433   E(TOP)= -200.000  0 -1    77
             APW+lo

          ATOMIC SPHERE DEPENDENT PARAMETERS FOR ATOM  C         
:e__0002: OVERALL ENERGY PARAMETER IS    0.4798
          OVERALL BASIS SET ON ATOM IS LAPW
:E0_0002: E( 0)=    0.8798
             APW+lo
:E0_0002: E( 0)=   -0.7800   E(BOTTOM)=   -1.098   E(TOP)= -200.000  1 -1   155
             LOCAL ORBITAL
:E1_0002: E( 1)=    0.4798
             APW+lo

       K=   0.00000   0.00000   0.00000            1
:RKM  : MATRIX SIZE   155LOs:  18  RKM= 6.89  WEIGHT= 1.00  PGR:    
       EIGENVALUES ARE:
:EIG00001:      -3.3344384   -1.5801049   -1.5801049   -1.5801049   -0.2579010
:EIG00006:       0.7455621    0.7455621    0.7455621    0.8196099    0.8196099
:EIG00011:       0.8196099    0.9069270    0.9069270    1.4277948    1.7298628
       ********************************************************

:KPT   :      NUMBER OF K-POINTS:     8
:GAP (global)   :    0.0    Ry =     0.0   eV (metal)
         Bandranges (emin - emax) and occupancy:
:BAN00001:   1   -3.334438   -3.326178  2.00000000
:BAN00002:   2   -1.623196   -1.580105  2.00000000
:BAN00003:   3   -1.605639   -1.580105  2.00000000
:BAN00004:   4   -1.595196   -1.580105  2.00000000
:BAN00005:   5   -0.257901   -0.013735  2.00000000
:BAN00006:   6    0.249737    0.745562  1.99575739
:BAN00007:   7    0.447988    0.745562  1.99697415
:BAN00008:   8    0.472357    0.745562  1.95768389
:BAN00009:   9    0.637100    1.006578  0.05063790
:BAN00010:  10    0.819610    1.029665 -0.00105334
:BAN00011:  11    0.819610    1.064646  0.00000000
:BAN00012:  12    0.906927    1.288712  0.00000000
:BAN00013:  13    0.906927    1.340812  0.00000000
:BAN00014:  14    1.340812    1.735731  0.00000000
:BAN00015:  15    1.695241    1.838657  0.00000000
        Energy to separate low and high energystates:    0.19974


:NOE  : NUMBER OF ELECTRONS          =  16.000

:FER  : F E R M I - ENERGY(TETRAH.M.)=   0.6933988155
:GMA  : POTENTIAL AND CHARGE CUT-OFF  12.00 Ry**.5




:POS001: ATOM    1 X,Y,Z = 0.00000 0.00000 0.00000  MULT= 1  ZZ= 22.000  Ti        

       LMMAX  5
       LM=   0 0  4 0  4 4  6 0  6 4

:CHA001: TOTAL VALENCE CHARGE INSIDE SPHERE   1 =   9.6083    (RMT=  2.2400 )
:PCS001: PARTIAL CHARGES SPHERE =  1 S,P,D,F,      D-EG,D-T2G 
:QTL001: 2.1559 6.1549 1.2420 0.0455 0.0000 0.0000 0.0000 0.7639 0.4781 0.0000 0.0000 0.0000
        Q-s-low E-s-low   Q-p-low E-p-low   Q-d-low E-d-low   Q-f-low E-f-low
:EPL001:  2.0463 -3.2297    5.9193 -1.5732    0.1013 -0.0754    0.0075 -0.0997
        Q-s-hi  E-s-hi    Q-p-hi  E-p-hi    Q-d-hi  E-d-hi    Q-f-hi  E-f-hi 
:EPH001:  0.1096  0.3696    0.2356  0.4748    1.1407  0.4899    0.0380  0.5444




:POS002: ATOM    2 X,Y,Z = 0.50000 0.50000 0.50000  MULT= 1  ZZ=  6.000  C         

       LMMAX  5
       LM=   0 0  4 0  4 4  6 0  6 4

:CHA002: TOTAL VALENCE CHARGE INSIDE SPHERE   2 =   4.0001    (RMT=  1.8300 )
:PCS002: PARTIAL CHARGES SPHERE =  2 S,P,D,F,      D-EG,D-T2G 
:QTL002: 1.2876 2.6815 0.0249 0.0048 0.0000 0.0000 0.0000 0.0090 0.0159 0.0000 0.0000 0.0000
        Q-s-low E-s-low   Q-p-low E-p-low   Q-d-low E-d-low   Q-f-low E-f-low
:EPL002:  1.2441 -0.0997    0.0260 -1.0771    0.0061 -1.5921    0.0020 -1.6480
        Q-s-hi  E-s-hi    Q-p-hi  E-p-hi    Q-d-hi  E-d-hi    Q-f-hi  E-f-hi 
:EPH002:  0.0435  0.4135    2.6555  0.4885    0.0188  0.5122    0.0027  0.4837

:CHA  : TOTAL VALENCE CHARGE INSIDE UNIT CELL =      16.000000

:SUM  : SUM OF EIGENVALUES =         -13.535504172



   QTL-B VALUE .EQ.    2.64009   in Band of energy    0.94981   ATOM=    1   L=  2
    Most likely no ghostbands, but adjust Energy-parameters for this ATOM and L


:WARN : QTL-B value eq.   2.64 in Band of energy   0.94981  ATOM=    1  L=  2
:WARN : You should change the E-parameter for this atom and L-value in case.in1 (or try the -in1new switch)

        1.ATOM      Ti                    4 CORE STATES
:1S 001: 1S                -356.500495074 Ry
:2S 001: 2S                 -38.158867078 Ry
:2PP001: 2P*                -31.630509484 Ry
:2P 001: 2P                 -31.206246292 Ry

        2.ATOM      C                     1 CORE STATES
:1S 002: 1S                 -18.869318080 Ry
:CINT001 Core Integral Atom   1   10.000000
:CINT002 Core Integral Atom   2    1.999997

       DENSITY AT NUCLEUS
        JATOM        VALENCE       SEMI-CORE          CORE           TOTAL
:RTO001:   1       96.744733        0.000000     8474.170387     8570.915120
:RTO002:   2        5.377320        0.000000      123.671679      129.049000
     
       CHARGES OF NEW CHARGE DENSITY
:NTO   : INTERSTITIAL CHARGE =     2.391568
:NTO001: CHARGE SPHERE  1    =    19.608275
:NTO002: CHARGE SPHERE  2    =     6.000143

:NEC01: NUCLEAR AND ELECTRONIC CHARGE     28.00000    27.99999
     
       CHARGES OF OLD CHARGE DENSITY
:OTO   : INTERSTITIAL CHARGE =     2.394140
:OTO001: CHARGE SPHERE  1    =    20.400913
:OTO002: CHARGE SPHERE  2    =     5.204946

:NEC02: NUCLEAR AND ELECTRONIC CHARGE     28.00000    28.00000
     
       CONVERGENCE TEST
:DTO001: DIFFERENCE IN SPHERE  1 =  0.6206048
:DTO002: DIFFERENCE IN SPHERE  2 =  0.6394828

:DIS  :  CHARGE DISTANCE       (  0.639483 for atom    2 spin 1)       0.630044
 
******************************************************
* MULTISECANT MIXING VER7 RELEASE 7.1.2              *
* Slow Mode, cautious                                *
* Hybrid mode active    2.500E-01                     *
* Upper Bound on PW scaling active                   *
* Regularization       1.000E-04                     *
* Step Trust Radius    0.75000                       *
* Greed Lower Bound    2.000E-02                     *
* Trust Upper Limit    5.000E+00                     *
* Charge change trust active                         *
* Max Number of Memory Steps   12                    *
******************************************************
 
:PLANE:  INTERSTITIAL TOTAL      0.88719 RMS  3.054E-01 , 1.438E+01 %
:CHARG:  CLM CHARGE   /ATOM     51.85561 RMS  1.766E+01 , 2.660E+00 %
 
Step History
      DMIX        Red     Pred      Trust     Lambda    MagRel    MagAbs     Beta
  1  3.50E-02 -1.00E+00  1.00E+00 -1.00E+01  1.00E+00  3.50E-02  3.50E-02  1.00E+00
  2  2.50E-02 -1.00E+00  1.00E+00 -1.00E+01  1.00E+00  2.50E-02  7.72E-02  1.00E+00
  
:DIRM :  MEMORY  1/12 RESCALE   21.66
:MIX  :   PRATT  REGULARIZATION: 1.00E-04  GREED: 0.0625  Expand 2.50 0.062                
     
       CHARGES OF MIXED CHARGE DENSITY
:CTO   : INTERSTITIAL CHARGE =     2.392932
:CTO001: CHARGE SPHERE  1    =    20.355612
:CTO002: CHARGE SPHERE  2    =     5.251457

:NEC03: NUCLEAR AND ELECTRONIC CHARGE     28.00000    28.00000

PW CHANGE     H    K    L      Current       Change    Residue
:PTO001:      0    0    0  6.44396482E-02  1.805E-04  3.363E-03
:PTO002:     -1   -1   -1 -2.16938456E-02 -4.636E-04 -5.971E-03
:PTO003:      0    0   -2  8.79896089E-02  8.836E-04  1.523E-02
:PTO004:      0   -2   -2  5.80738534E-02  1.189E-04  1.453E-03
:PTO005:     -1   -1   -3 -9.56365045E-03  1.797E-03  3.430E-02
:PTO006:     -2   -2   -2  1.15387313E-02 -2.268E-04 -4.453E-03
:PTO007:      0    0   -4  1.86455761E-03 -2.624E-05 -5.177E-04
:PTO008:     -1   -3   -3 -1.55610995E-03  4.098E-04  7.392E-03
:PTO009:      0   -2   -4 -2.63102041E-03 -4.975E-04 -9.214E-03
:PTO010:     -2   -2   -4 -4.58266598E-03 -5.413E-04 -1.003E-02
:PTO011:     -3   -3   -3  3.99915360E-04 -1.851E-05 -4.456E-04
:PTO012:     -1   -1   -5  1.51579620E-03  7.255E-05  1.061E-03

:ENE  : *WARNING** TOTAL ENERGY IN Ry =        -1784.03160560

 Flat Integration
 New Mode for Coulomb Integral
 Consistent 3/8+Simpson combinations
 Extension of core to zero
 LDM version in phi
 Fifth-order quadrature in outwin


            ---------
:ITE005:  5. ITERATION
            ---------

:NATO :    2 INDEPENDENT AND    2 TOTAL ATOMS IN UNITCELL
       SUBSTANCE: TiC                                                         

       LATTICE                      = F   
:POT  : POTENTIAL OPTION EX_PBE EC_PBE VX_PBE VC_PBE
:LAT  : LATTICE CONSTANTS=  8.17874  8.17874  8.17874    1.571    1.571    1.571
:VOL  : UNIT CELL VOLUME =     136.77254
       MODE OF CALCULATION IS       = RELA
       NON-SPINPOLARIZED CALCULATION
:IFFT  : FFT-parameters:   64   64   64 Factor: 2.00
       ATOMNUMBER=  1 Ti         VCOUL-ZERO =  0.48815E+00
       ATOMNUMBER=  2 C          VCOUL-ZERO =  0.52072E+00
:FIT001: LUSE= 13 SIGMA OF V-XC FIT FOR ATOM  1  0.1179611E-01
:FIT001: LUSE= 13 SIGMA OF V-XC FIT FOR ATOM  1  0.1179611E-01
:FIT002: LUSE= 13 SIGMA OF V-XC FIT FOR ATOM  2  0.1473942E-02
:FIT002: LUSE= 13 SIGMA OF V-XC FIT FOR ATOM  2  0.1473942E-02
:DEN  : DENSITY INTEGRAL  =          -754.76756414   (Ry)
       ELS_POTENTIAL_AT Z=0 and Z=0.5:  -2.83083  -2.83083
       ELS_POTENTIAL_AT Y=0 and Y=0.5:   0.00000   0.00000
:VZERO:v0,v0c,v0x  -4.04976  -2.83083  -1.21893 v5,v5c,v5x  -4.04976  -2.83083  -1.21893
:VZERY:v0,v0c,v0x  -0.86871   0.00000  -0.86871 v5,v5c,v5x  -0.86871   0.00000  -0.86871
:VZERX:v0,v0c,v0x  -0.86871   0.00000  -0.86871 v5,v5c,v5x  -0.86871   0.00000  -0.86871
:LMAX-WF:   10   Non-Spherical LMAX:   4

          ATOMIC SPHERE DEPENDENT PARAMETERS FOR ATOM  Ti        
:e__0001: OVERALL ENERGY PARAMETER IS    0.4889
          OVERALL BASIS SET ON ATOM IS LAPW
:E0_0001: E( 0)=    0.4889
             APW+lo
:E0_0001: E( 0)=   -3.3864   E(BOTTOM)=   -3.520   E(TOP)=   -3.253  2  3   194
             LOCAL ORBITAL
:E1_0001: E( 1)=    0.4889
             APW+lo
:E1_0001: E( 1)=   -1.6649   E(BOTTOM)=   -1.906   E(TOP)=   -1.424  1  2   189
             LOCAL ORBITAL
:E2_0001: E( 2)=    0.4889   E(BOTTOM)=    0.414   E(TOP)= -200.000  0 -1    77
             APW+lo

          ATOMIC SPHERE DEPENDENT PARAMETERS FOR ATOM  C         
:e__0002: OVERALL ENERGY PARAMETER IS    0.4889
          OVERALL BASIS SET ON ATOM IS LAPW
:E0_0002: E( 0)=    0.8889
             APW+lo
:E0_0002: E( 0)=   -0.7800   E(BOTTOM)=   -1.076   E(TOP)= -200.000  1 -1   153
             LOCAL ORBITAL
:E1_0002: E( 1)=    0.4889
             APW+lo

       K=   0.00000   0.00000   0.00000            1
:RKM  : MATRIX SIZE   155LOs:  18  RKM= 6.89  WEIGHT= 1.00  PGR:    
       EIGENVALUES ARE:
:EIG00001:      -3.3652841   -1.6090929   -1.6090929   -1.6090929   -0.2455981
:EIG00006:       0.7668129    0.7668129    0.7668129    0.8027451    0.8027451
:EIG00011:       0.8027451    0.8874835    0.8874835    1.4391023    1.7299798
       ********************************************************

:KPT   :      NUMBER OF K-POINTS:     8
:GAP (global)   :    0.0    Ry =     0.0   eV (metal)
         Bandranges (emin - emax) and occupancy:
:BAN00001:   1   -3.365284   -3.357274  2.00000000
:BAN00002:   2   -1.650509   -1.609093  2.00000000
:BAN00003:   3   -1.633761   -1.609093  2.00000000
:BAN00004:   4   -1.623635   -1.609093  2.00000000
:BAN00005:   5   -0.245598    0.001921  2.00000000
:BAN00006:   6    0.255983    0.766813  1.99449123
:BAN00007:   7    0.454886    0.766813  1.99559789
:BAN00008:   8    0.478583    0.766813  1.95805142
:BAN00009:   9    0.653856    0.983954  0.05305074
:BAN00010:  10    0.802745    1.005712 -0.00119441
:BAN00011:  11    0.802745    1.049824  0.00000313
:BAN00012:  12    0.887483    1.292270  0.00000000
:BAN00013:  13    0.887483    1.331525  0.00000000
:BAN00014:  14    1.331525    1.734541  0.00000000
:BAN00015:  15    1.689746    1.825918  0.00000000
:BAN00016:  16    1.795587    2.044172  0.00000000
        Energy to separate low and high energystates:    0.20598


:NOE  : NUMBER OF ELECTRONS          =  16.000

:FER  : F E R M I - ENERGY(TETRAH.M.)=   0.7040537163
:GMA  : POTENTIAL AND CHARGE CUT-OFF  12.00 Ry**.5




:POS001: ATOM    1 X,Y,Z = 0.00000 0.00000 0.00000  MULT= 1  ZZ= 22.000  Ti        

       LMMAX  5
       LM=   0 0  4 0  4 4  6 0  6 4

:CHA001: TOTAL VALENCE CHARGE INSIDE SPHERE   1 =   9.7225    (RMT=  2.2400 )
:PCS001: PARTIAL CHARGES SPHERE =  1 S,P,D,F,      D-EG,D-T2G 
:QTL001: 2.1577 6.1595 1.3515 0.0443 0.0000 0.0000 0.0000 0.8201 0.5314 0.0000 0.0000 0.0000
        Q-s-low E-s-low   Q-p-low E-p-low   Q-d-low E-d-low   Q-f-low E-f-low
:EPL001:  2.0485 -3.2565    5.9249 -1.6011    0.1062 -0.0597    0.0074 -0.0833
        Q-s-hi  E-s-hi    Q-p-hi  E-p-hi    Q-d-hi  E-d-hi    Q-f-hi  E-f-hi 
:EPH001:  0.1091  0.3764    0.2346  0.4829    1.2453  0.4971    0.0369  0.5544




:POS002: ATOM    2 X,Y,Z = 0.50000 0.50000 0.50000  MULT= 1  ZZ=  6.000  C         

       LMMAX  5
       LM=   0 0  4 0  4 4  6 0  6 4

:CHA002: TOTAL VALENCE CHARGE INSIDE SPHERE   2 =   3.8699    (RMT=  1.8300 )
:PCS002: PARTIAL CHARGES SPHERE =  2 S,P,D,F,      D-EG,D-T2G 
:QTL002: 1.2718 2.5659 0.0258 0.0049 0.0000 0.0000 0.0000 0.0092 0.0166 0.0000 0.0000 0.0000
        Q-s-low E-s-low   Q-p-low E-p-low   Q-d-low E-d-low   Q-f-low E-f-low
:EPL002:  1.2278 -0.0844    0.0256 -1.0542    0.0060 -1.6054    0.0020 -1.6646
        Q-s-hi  E-s-hi    Q-p-hi  E-p-hi    Q-d-hi  E-d-hi    Q-f-hi  E-f-hi 
:EPH002:  0.0440  0.4206    2.5404  0.4965    0.0199  0.5155    0.0029  0.4925

:CHA  : TOTAL VALENCE CHARGE INSIDE UNIT CELL =      16.000000

:SUM  : SUM OF EIGENVALUES =         -13.693378220



   QTL-B VALUE .EQ.    3.13015   in Band of energy    0.92153   ATOM=    1   L=  2
    Most likely no ghostbands, but adjust Energy-parameters for this ATOM and L


:WARN : QTL-B value eq.   3.13 in Band of energy   0.92153  ATOM=    1  L=  2
:WARN : You should change the E-parameter for this atom and L-value in case.in1 (or try the -in1new switch)

        1.ATOM      Ti                    4 CORE STATES
:1S 001: 1S                -356.550607701 Ry
:2S 001: 2S                 -38.207722183 Ry
:2PP001: 2P*                -31.679700747 Ry
:2P 001: 2P                 -31.255406493 Ry

        2.ATOM      C                     1 CORE STATES
:1S 002: 1S                 -18.818329575 Ry
:CINT001 Core Integral Atom   1   10.000000
:CINT002 Core Integral Atom   2    1.999997

       DENSITY AT NUCLEUS
        JATOM        VALENCE       SEMI-CORE          CORE           TOTAL
:RTO001:   1       97.026956        0.000000     8474.223105     8571.250061
:RTO002:   2        5.266960        0.000000      123.656630      128.923590
     
       CHARGES OF NEW CHARGE DENSITY
:NTO   : INTERSTITIAL CHARGE =     2.407537
:NTO001: CHARGE SPHERE  1    =    19.722530
:NTO002: CHARGE SPHERE  2    =     5.869919

:NEC01: NUCLEAR AND ELECTRONIC CHARGE     28.00000    27.99999
     
       CHARGES OF OLD CHARGE DENSITY
:OTO   : INTERSTITIAL CHARGE =     2.392932
:OTO001: CHARGE SPHERE  1    =    20.355612
:OTO002: CHARGE SPHERE  2    =     5.251457

:NEC02: NUCLEAR AND ELECTRONIC CHARGE     28.00000    28.00000
     
       CONVERGENCE TEST
:DTO001: DIFFERENCE IN SPHERE  1 =  0.4914161
:DTO002: DIFFERENCE IN SPHERE  2 =  0.4951028

:DIS  :  CHARGE DISTANCE       (  0.495103 for atom    2 spin 1)       0.493259
 
******************************************************
* MULTISECANT MIXING VER7 RELEASE 7.1.2              *
* Standard Mode with controls                        *
* Upper Bound on PW scaling active                   *
* Regularization       1.000E-04                     *
* Greed Lower Bound    2.500E-02                     *
* Trust Upper Limit    1.200E+01                     *
* Charge change trust active                         *
* Max Number of Memory Steps    8                    *
******************************************************
 
:PLANE:  INTERSTITIAL TOTAL      0.89110 RMS  2.656E-01 , 1.245E+01 %
:CHARG:  CLM CHARGE   /ATOM     51.84842 RMS  1.522E+01 , 2.293E+00 %
 
Step History
      DMIX        Red     Pred      Trust     Lambda    MagRel    MagAbs     Beta
  1  3.50E-02 -1.00E+00  1.00E+00 -1.00E+01  1.00E+00  3.50E-02  3.50E-02  1.00E+00
  2  2.50E-02  8.96E-01  1.00E+00 -1.00E+01  1.00E+00  2.50E-02  7.72E-02  1.00E+00
  3  6.25E-02 -1.00E+00  1.00E+00 -1.00E+01  1.00E+00  6.25E-02  2.44E-01  1.00E+00
  
:NORMS:  1/Froebius, Min, Max, Used   0.2818E+00  0.9102E-01  0.2823E+00  0.2823E+00
:INFO :  Number of Memory Steps    2 Skipping    0
:INFO :  SLambda=    2.4965551  Max    2.4965551

Eigenvalues, unscaled except for SY+YY
   #     SY Real        SY Imag          SS             YY         SY+YY Real      SY+YY Imag
   1   2.775558E-17   0.000000E+00   1.587843E-01   1.992447E+00   6.957269E-03   0.000000E+00
   2   4.618383E-01   0.000000E+00   0.000000E+00   7.552776E-03   3.146047E+00   0.000000E+00
 
:INFO :  Singular value  3.148E+00 Weight  1.000E+00 Projection  2.085E+00
:INFO :  Singular value  6.953E-03 Weight  9.992E-01 Projection -3.537E+00
:RANK :  ACTIVE   2.00/2  =  99.96 %
 
:TRUST:  Step 2.27E-01  Charge 3.50E-02 (e)
:DTRUS:  Lambda    1.465E+00 Increment    7.276E-12 Iterations   110 DMIX  0.0657
:INFOA:  Angle SubSpace to MSR1      2.37
:DIRM :  MEMORY  2/8  RESCALE   21.59 RED  0.87 PRED  1.00 NEXT  0.72 
:INFO :  Limited by Atoms F by Step T

:DIRP :  |MSR1|= 5.410E-01 |PRATT|= 2.395E+00 ANGLE=   1.5 DEGREES
:DIRQ :  |MSR1|= 5.416E-01 |PRATT|= 2.378E+00 ANGLE=   3.0 DEGREES
:DIRT :  |MSR1|= 7.655E-01 |PRATT|= 3.375E+00 ANGLE=   2.4 DEGREES
:MIX  :   MSE1   REGULARIZATION: 1.99E-04  GREED: 0.0710  LMStep 0.75 0.227 Step           
     
       CHARGES OF MIXED CHARGE DENSITY
:CTO   : INTERSTITIAL CHARGE =     2.394285
:CTO001: CHARGE SPHERE  1    =    20.214316
:CTO002: CHARGE SPHERE  2    =     5.391399

:NEC03: NUCLEAR AND ELECTRONIC CHARGE     28.00000    28.00000

PW CHANGE     H    K    L      Current       Change    Residue
:PTO001:      0    0    0  6.50580215E-02  6.184E-04  2.867E-03
:PTO002:     -1   -1   -1 -2.22511381E-02 -5.573E-04 -2.059E-03
:PTO003:      0    0   -2  9.07451477E-02  2.756E-03  1.212E-02
:PTO004:      0   -2   -2  5.78711398E-02 -2.027E-04 -4.621E-04
:PTO005:     -1   -1   -3 -2.21188651E-03  7.352E-03  3.250E-02
:PTO006:     -2   -2   -2  1.04726783E-02 -1.066E-03 -4.588E-03
:PTO007:      0    0   -4  1.81633091E-03 -4.823E-05 -3.342E-04
:PTO008:     -1   -3   -3 -1.50954535E-04  1.405E-03  6.277E-03
:PTO009:      0   -2   -4 -4.44941801E-03 -1.818E-03 -8.150E-03
:PTO010:     -2   -2   -4 -6.61026137E-03 -2.028E-03 -9.003E-03
:PTO011:     -3   -3   -3  2.69918052E-04 -1.300E-04 -5.676E-04
:PTO012:     -1   -1   -5  1.73146157E-03  2.157E-04  7.843E-04

:ENE  : *WARNING** TOTAL ENERGY IN Ry =        -1783.99528874

 Flat Integration
 New Mode for Coulomb Integral
 Consistent 3/8+Simpson combinations
 Extension of core to zero
 LDM version in phi
 Fifth-order quadrature in outwin


            ---------
:ITE006:  6. ITERATION
            ---------

:NATO :    2 INDEPENDENT AND    2 TOTAL ATOMS IN UNITCELL
       SUBSTANCE: TiC                                                         

       LATTICE                      = F   
:POT  : POTENTIAL OPTION EX_PBE EC_PBE VX_PBE VC_PBE
:LAT  : LATTICE CONSTANTS=  8.17874  8.17874  8.17874    1.571    1.571    1.571
:VOL  : UNIT CELL VOLUME =     136.77254
       MODE OF CALCULATION IS       = RELA
       NON-SPINPOLARIZED CALCULATION
:IFFT  : FFT-parameters:   64   64   64 Factor: 2.00
       ATOMNUMBER=  1 Ti         VCOUL-ZERO =  0.48398E+00
       ATOMNUMBER=  2 C          VCOUL-ZERO =  0.56270E+00
:FIT001: LUSE= 13 SIGMA OF V-XC FIT FOR ATOM  1  0.1340421E-01
:FIT001: LUSE= 13 SIGMA OF V-XC FIT FOR ATOM  1  0.1340421E-01
:FIT002: LUSE= 13 SIGMA OF V-XC FIT FOR ATOM  2  0.1187769E-02
:FIT002: LUSE= 13 SIGMA OF V-XC FIT FOR ATOM  2  0.1187769E-02
:DEN  : DENSITY INTEGRAL  =          -753.05446831   (Ry)
       ELS_POTENTIAL_AT Z=0 and Z=0.5:  -2.83025  -2.83025
       ELS_POTENTIAL_AT Y=0 and Y=0.5:   0.00000   0.00000
:VZERO:v0,v0c,v0x  -4.06296  -2.83025  -1.23271 v5,v5c,v5x  -4.06296  -2.83025  -1.23271
:VZERY:v0,v0c,v0x  -0.86920   0.00000  -0.86920 v5,v5c,v5x  -0.86920   0.00000  -0.86920
:VZERX:v0,v0c,v0x  -0.86920   0.00000  -0.86920 v5,v5c,v5x  -0.86920   0.00000  -0.86920
:LMAX-WF:   10   Non-Spherical LMAX:   4

          ATOMIC SPHERE DEPENDENT PARAMETERS FOR ATOM  Ti        
:e__0001: OVERALL ENERGY PARAMETER IS    0.4990
          OVERALL BASIS SET ON ATOM IS LAPW
:E0_0001: E( 0)=    0.4990
             APW+lo
:E0_0001: E( 0)=   -3.4788   E(BOTTOM)=   -3.607   E(TOP)=   -3.350  2  3   190
             LOCAL ORBITAL
:E1_0001: E( 1)=    0.4990
             APW+lo
:E1_0001: E( 1)=   -1.7506   E(BOTTOM)=   -1.983   E(TOP)=   -1.518  1  2   183
             LOCAL ORBITAL
:E2_0001: E( 2)=    0.4990   E(BOTTOM)=    0.358   E(TOP)= -200.000  0 -1    87
             APW+lo

          ATOMIC SPHERE DEPENDENT PARAMETERS FOR ATOM  C         
:e__0002: OVERALL ENERGY PARAMETER IS    0.4990
          OVERALL BASIS SET ON ATOM IS LAPW
:E0_0002: E( 0)=    0.8990
             APW+lo
:E0_0002: E( 0)=   -0.7800   E(BOTTOM)=   -1.008   E(TOP)= -200.000  1 -1   148
             LOCAL ORBITAL
:E1_0002: E( 1)=    0.4990
             APW+lo

       K=   0.00000   0.00000   0.00000            1
:RKM  : MATRIX SIZE   155LOs:  18  RKM= 6.89  WEIGHT= 1.00  PGR:    
       EIGENVALUES ARE:
:EIG00001:      -3.4579298   -1.6962324   -1.6962324   -1.6962324   -0.2097770
:EIG00006:       0.7504048    0.7504048    0.7504048    0.8276700    0.8276700
:EIG00011:       0.8295542    0.8295542    0.8295542    1.4745746    1.7313638
       ********************************************************

:KPT   :      NUMBER OF K-POINTS:     8
:GAP (global)   :    0.0    Ry =     0.0   eV (metal)
         Bandranges (emin - emax) and occupancy:
:BAN00001:   1   -3.457930   -3.450624  2.00000000
:BAN00002:   2   -1.733102   -1.696232  2.00000000
:BAN00003:   3   -1.718504   -1.696232  2.00000000
:BAN00004:   4   -1.709280   -1.696232  2.00000000
:BAN00005:   5   -0.209777    0.048217  2.00000000
:BAN00006:   6    0.271939    0.750405  1.99550996
:BAN00007:   7    0.471054    0.750405  1.99726726
:BAN00008:   8    0.490102    0.750405  1.86788781
:BAN00009:   9    0.673423    0.915080  0.14028823
:BAN00010:  10    0.827670    0.933331 -0.00095327
:BAN00011:  11    0.829554    1.003638  0.00000000
:BAN00012:  12    0.829554    1.304366  0.00000000
:BAN00013:  13    0.829554    1.309297  0.00000000
:BAN00014:  14    1.309297    1.735135  0.00000000
:BAN00015:  15    1.679116    1.823227  0.00000000
        Energy to separate low and high energystates:    0.22194


:NOE  : NUMBER OF ELECTRONS          =  16.000

:FER  : F E R M I - ENERGY(TETRAH.M.)=   0.7036430379
:GMA  : POTENTIAL AND CHARGE CUT-OFF  12.00 Ry**.5




:POS001: ATOM    1 X,Y,Z = 0.00000 0.00000 0.00000  MULT= 1  ZZ= 22.000  Ti        

       LMMAX  5
       LM=   0 0  4 0  4 4  6 0  6 4

:CHA001: TOTAL VALENCE CHARGE INSIDE SPHERE   1 =  10.2395    (RMT=  2.2400 )
:PCS001: PARTIAL CHARGES SPHERE =  1 S,P,D,F,      D-EG,D-T2G 
:QTL001: 2.1612 6.1564 1.8795 0.0344 0.0000 0.0000 0.0000 1.0110 0.8685 0.0000 0.0000 0.0000
        Q-s-low E-s-low   Q-p-low E-p-low   Q-d-low E-d-low   Q-f-low E-f-low
:EPL001:  2.0555 -3.3362    5.9406 -1.6848    0.1238 -0.0144    0.0070 -0.0362
        Q-s-hi  E-s-hi    Q-p-hi  E-p-hi    Q-d-hi  E-d-hi    Q-f-hi  E-f-hi 
:EPH001:  0.1057  0.3925    0.2158  0.4907    1.7557  0.5273    0.0273  0.5450




:POS002: ATOM    2 X,Y,Z = 0.50000 0.50000 0.50000  MULT= 1  ZZ=  6.000  C         

       LMMAX  5
       LM=   0 0  4 0  4 4  6 0  6 4

:CHA002: TOTAL VALENCE CHARGE INSIDE SPHERE   2 =   3.3248    (RMT=  1.8300 )
:PCS002: PARTIAL CHARGES SPHERE =  2 S,P,D,F,      D-EG,D-T2G 
:QTL002: 1.2205 2.0624 0.0349 0.0054 0.0000 0.0000 0.0000 0.0098 0.0250 0.0000 0.0000 0.0000
        Q-s-low E-s-low   Q-p-low E-p-low   Q-d-low E-d-low   Q-f-low E-f-low
:EPL002:  1.1765 -0.0402    0.0246 -0.9751    0.0056 -1.6370    0.0019 -1.7078
        Q-s-hi  E-s-hi    Q-p-hi  E-p-hi    Q-d-hi  E-d-hi    Q-f-hi  E-f-hi 
:EPH002:  0.0441  0.4379    2.0378  0.4999    0.0293  0.5561    0.0035  0.5109

:CHA  : TOTAL VALENCE CHARGE INSIDE UNIT CELL =      16.000000

:SUM  : SUM OF EIGENVALUES =         -14.214291749



   QTL-B VALUE .EQ.    2.45529   in Band of energy    0.85812   ATOM=    1   L=  2
    Most likely no ghostbands, but adjust Energy-parameters for this ATOM and L


:WARN : QTL-B value eq.   2.46 in Band of energy   0.85812  ATOM=    1  L=  2
:WARN : You should change the E-parameter for this atom and L-value in case.in1 (or try the -in1new switch)

        1.ATOM      Ti                    4 CORE STATES
:1S 001: 1S                -356.693836760 Ry
:2S 001: 2S                 -38.351303375 Ry
:2PP001: 2P*                -31.823802072 Ry
:2P 001: 2P                 -31.399447473 Ry

        2.ATOM      C                     1 CORE STATES
:1S 002: 1S                 -18.673772892 Ry
:CINT001 Core Integral Atom   1   10.000000
:CINT002 Core Integral Atom   2    1.999997

       DENSITY AT NUCLEUS
        JATOM        VALENCE       SEMI-CORE          CORE           TOTAL
:RTO001:   1       97.820394        0.000000     8474.329050     8572.149444
:RTO002:   2        4.925791        0.000000      123.629505      128.555296
     
       CHARGES OF NEW CHARGE DENSITY
:NTO   : INTERSTITIAL CHARGE =     2.435683
:NTO001: CHARGE SPHERE  1    =    20.239493
:NTO002: CHARGE SPHERE  2    =     5.324813

:NEC01: NUCLEAR AND ELECTRONIC CHARGE     28.00000    27.99999
     
       CHARGES OF OLD CHARGE DENSITY
:OTO   : INTERSTITIAL CHARGE =     2.394285
:OTO001: CHARGE SPHERE  1    =    20.214316
:OTO002: CHARGE SPHERE  2    =     5.391399

:NEC02: NUCLEAR AND ELECTRONIC CHARGE     28.00000    28.00000
     
       CONVERGENCE TEST
:DTO001: DIFFERENCE IN SPHERE  1 =  0.1491957
:DTO002: DIFFERENCE IN SPHERE  2 =  0.1992238

:DIS  :  CHARGE DISTANCE       (  0.199224 for atom    2 spin 1)       0.174210
 
******************************************************
* MULTISECANT MIXING VER7 RELEASE 7.1.2              *
* Standard Mode with controls                        *
* Upper Bound on PW scaling active                   *
* Regularization       1.000E-04                     *
* Greed Lower Bound    2.500E-02                     *
* Trust Upper Limit    1.200E+01                     *
* Charge change trust active                         *
* Max Number of Memory Steps    8                    *
******************************************************
 
:PLANE:  INTERSTITIAL TOTAL      0.90317 RMS  2.049E-01 , 9.475E+00 %
:CHARG:  CLM CHARGE   /ATOM     51.82954 RMS  8.264E+00 , 1.245E+00 %
 
Step History
      DMIX        Red     Pred      Trust     Lambda    MagRel    MagAbs     Beta
  1  3.50E-02 -1.00E+00  1.00E+00 -1.00E+01  1.00E+00  3.50E-02  3.50E-02  1.00E+00
  2  2.50E-02  8.96E-01  1.00E+00 -1.00E+01  1.00E+00  2.50E-02  7.72E-02  1.00E+00
  3  6.25E-02  8.66E-01  1.00E+00  2.27E-01  2.50E+00  6.25E-02  2.44E-01  1.00E+00
  4  7.10E-02 -1.00E+00  7.22E-01 -1.00E+01  1.00E+00  2.27E-01  7.65E-01  1.00E+00
  
:NORMS:  1/Froebius, Min, Max, Used   0.2683E+00  0.1685E+00  0.2683E+00  0.2683E+00
:INFO :  Number of Memory Steps    3 Skipping    0
:INFO :  SLambda=    1.1382552  Max    1.1382552

Eigenvalues, unscaled except for SY+YY
   #     SY Real        SY Imag          SS             YY         SY+YY Real      SY+YY Imag
   1   6.211477E-01   0.000000E+00   2.158208E-01   2.998710E+00   3.705845E+00   0.000000E+00
   2  -5.677037E-17   0.000000E+00   1.494337E-04   1.038789E-03   2.780386E-04   0.000000E+00
   3   3.382021E-04   0.000000E+00   2.668542E-18   2.513402E-04   1.286581E-03   0.000000E+00
 
:INFO :  Singular value  3.706E+00 Weight  1.000E+00 Projection  6.789E-05
:INFO :  Singular value  1.296E-03 Weight  9.492E-01 Projection  4.150E+01
:INFO :  Singular value  2.761E-04 Weight  4.588E-01 Projection  3.472E+01
:RANK :  ACTIVE   2.41/3  =  80.26 %
 
:TRUST:  Step 4.06E-01  Charge 3.50E-02 (e)
:DIRM :  MEMORY  3/8  RESCALE   20.21 RED  0.66 PRED  0.72 NEXT  0.81 
:DIRP :  |MSR1|= 5.749E-01 |PRATT|= 1.730E+00 ANGLE=  14.8 DEGREES
:DIRQ :  |MSR1|= 4.422E-01 |PRATT|= 1.291E+00 ANGLE=  24.6 DEGREES
:DIRT :  |MSR1|= 7.253E-01 |PRATT|= 2.158E+00 ANGLE=  18.9 DEGREES
:MIX  :   MSE1   REGULARIZATION: 3.00E-04  GREED: 0.0917  Newton 1.00 0.336                
     
       CHARGES OF MIXED CHARGE DENSITY
:CTO   : INTERSTITIAL CHARGE =     2.396269
:CTO001: CHARGE SPHERE  1    =    20.282449
:CTO002: CHARGE SPHERE  2    =     5.321282

:NEC03: NUCLEAR AND ELECTRONIC CHARGE     28.00000    28.00000

PW CHANGE     H    K    L      Current       Change    Residue
:PTO001:      0    0    0  6.49308225E-02 -1.272E-04  6.585E-04
:PTO002:     -1   -1   -1 -1.70421992E-02  5.209E-03  1.407E-02
:PTO003:      0    0   -2  9.02227529E-02 -5.224E-04  6.277E-04
:PTO004:      0   -2   -2  5.52620535E-02 -2.609E-03 -5.878E-03
:PTO005:     -1   -1   -3  3.84400005E-03  6.056E-03  2.225E-02
:PTO006:     -2   -2   -2  9.18930537E-03 -1.283E-03 -3.991E-03
:PTO007:      0    0   -4  1.92620914E-03  1.099E-04 -6.075E-05
:PTO008:     -1   -3   -3 -1.73342337E-05  1.336E-04  1.744E-03
:PTO009:      0   -2   -4 -5.43064627E-03 -9.812E-04 -4.317E-03
:PTO010:     -2   -2   -4 -7.73183506E-03 -1.122E-03 -4.730E-03
:PTO011:     -3   -3   -3 -2.83830934E-05 -2.983E-04 -8.820E-04
:PTO012:     -1   -1   -5  1.49539578E-03 -2.361E-04 -8.633E-04

:ENE  : *WARNING** TOTAL ENERGY IN Ry =        -1783.95198015

 Flat Integration
 New Mode for Coulomb Integral
 Consistent 3/8+Simpson combinations
 Extension of core to zero
 LDM version in phi
 Fifth-order quadrature in outwin


            ---------
:ITE007:  7. ITERATION
            ---------

:NATO :    2 INDEPENDENT AND    2 TOTAL ATOMS IN UNITCELL
       SUBSTANCE: TiC                                                         

       LATTICE                      = F   
:POT  : POTENTIAL OPTION EX_PBE EC_PBE VX_PBE VC_PBE
:LAT  : LATTICE CONSTANTS=  8.17874  8.17874  8.17874    1.571    1.571    1.571
:VOL  : UNIT CELL VOLUME =     136.77254
       MODE OF CALCULATION IS       = RELA
       NON-SPINPOLARIZED CALCULATION
:IFFT  : FFT-parameters:   64   64   64 Factor: 2.00
       ATOMNUMBER=  1 Ti         VCOUL-ZERO =  0.48780E+00
       ATOMNUMBER=  2 C          VCOUL-ZERO =  0.54993E+00
:FIT001: LUSE= 13 SIGMA OF V-XC FIT FOR ATOM  1  0.1348302E-01
:FIT001: LUSE= 13 SIGMA OF V-XC FIT FOR ATOM  1  0.1348302E-01
:FIT002: LUSE= 13 SIGMA OF V-XC FIT FOR ATOM  2  0.1098644E-02
:FIT002: LUSE= 13 SIGMA OF V-XC FIT FOR ATOM  2  0.1098644E-02
:DEN  : DENSITY INTEGRAL  =          -754.56365969   (Ry)
       ELS_POTENTIAL_AT Z=0 and Z=0.5:  -2.82675  -2.82675
       ELS_POTENTIAL_AT Y=0 and Y=0.5:   0.00000   0.00000
:VZERO:v0,v0c,v0x  -4.06291  -2.82675  -1.23616 v5,v5c,v5x  -4.06291  -2.82675  -1.23616
:VZERY:v0,v0c,v0x  -0.86895   0.00000  -0.86895 v5,v5c,v5x  -0.86895   0.00000  -0.86895
:VZERX:v0,v0c,v0x  -0.86895   0.00000  -0.86895 v5,v5c,v5x  -0.86895   0.00000  -0.86895
:LMAX-WF:   10   Non-Spherical LMAX:   4

          ATOMIC SPHERE DEPENDENT PARAMETERS FOR ATOM  Ti        
:e__0001: OVERALL ENERGY PARAMETER IS    0.5021
          OVERALL BASIS SET ON ATOM IS LAPW
:E0_0001: E( 0)=    0.5021
             APW+lo
:E0_0001: E( 0)=   -3.4115   E(BOTTOM)=   -3.543   E(TOP)=   -3.280  2  3   190
             LOCAL ORBITAL
:E1_0001: E( 1)=    0.5021
             APW+lo
:E1_0001: E( 1)=   -1.6881   E(BOTTOM)=   -1.927   E(TOP)=   -1.449  1  2   183
             LOCAL ORBITAL
:E2_0001: E( 2)=    0.5021   E(BOTTOM)=    0.399   E(TOP)= -200.000  0 -1    82
             APW+lo

          ATOMIC SPHERE DEPENDENT PARAMETERS FOR ATOM  C         
:e__0002: OVERALL ENERGY PARAMETER IS    0.5021
          OVERALL BASIS SET ON ATOM IS LAPW
:E0_0002: E( 0)=    0.9021
             APW+lo
:E0_0002: E( 0)=   -0.7800   E(BOTTOM)=   -1.044   E(TOP)= -200.000  1 -1   155
             LOCAL ORBITAL
:E1_0002: E( 1)=    0.5021
             APW+lo

       K=   0.00000   0.00000   0.00000            1
:RKM  : MATRIX SIZE   155LOs:  18  RKM= 6.89  WEIGHT= 1.00  PGR:    
       EIGENVALUES ARE:
:EIG00001:      -3.3904568   -1.6326844   -1.6326844   -1.6326844   -0.2276167
:EIG00006:       0.7895228    0.7895228    0.7895228    0.7952167    0.7952167
:EIG00011:       0.7952167    0.8718673    0.8718673    1.4573613    1.7333097
       ********************************************************

:KPT   :      NUMBER OF K-POINTS:     8
:GAP (global)   :    0.0    Ry =     0.0   eV (metal)
         Bandranges (emin - emax) and occupancy:
:BAN00001:   1   -3.390457   -3.382661  2.00000000
:BAN00002:   2   -1.672649   -1.632684  2.00000000
:BAN00003:   3   -1.656611   -1.632684  2.00000000
:BAN00004:   4   -1.646756   -1.632684  2.00000000
:BAN00005:   5   -0.227617    0.024600  2.00000000
:BAN00006:   6    0.266464    0.789523  1.99269963
:BAN00007:   7    0.466243    0.789523  1.99347777
:BAN00008:   8    0.488922    0.789523  1.95567527
:BAN00009:   9    0.676993    0.965721  0.05987245
:BAN00010:  10    0.795217    0.986239 -0.00177302
:BAN00011:  11    0.795217    1.040002  0.00004789
:BAN00012:  12    0.871867    1.300338  0.00000000
:BAN00013:  13    0.871867    1.329990  0.00000000
:BAN00014:  14    1.329990    1.739169  0.00000000
:BAN00015:  15    1.689690    1.817594  0.00000000
:BAN00016:  16    1.799955    2.042324  0.00000000
        Energy to separate low and high energystates:    0.21646


:NOE  : NUMBER OF ELECTRONS          =  16.000

:FER  : F E R M I - ENERGY(TETRAH.M.)=   0.7150001124
:GMA  : POTENTIAL AND CHARGE CUT-OFF  12.00 Ry**.5




:POS001: ATOM    1 X,Y,Z = 0.00000 0.00000 0.00000  MULT= 1  ZZ= 22.000  Ti        

       LMMAX  5
       LM=   0 0  4 0  4 4  6 0  6 4

:CHA001: TOTAL VALENCE CHARGE INSIDE SPHERE   1 =   9.9061    (RMT=  2.2400 )
:PCS001: PARTIAL CHARGES SPHERE =  1 S,P,D,F,      D-EG,D-T2G 
:QTL001: 2.1595 6.1612 1.5363 0.0400 0.0000 0.0000 0.0000 0.8850 0.6513 0.0000 0.0000 0.0000
        Q-s-low E-s-low   Q-p-low E-p-low   Q-d-low E-d-low   Q-f-low E-f-low
:EPL001:  2.0512 -3.2768    5.9302 -1.6235    0.1124 -0.0376    0.0073 -0.0610
        Q-s-hi  E-s-hi    Q-p-hi  E-p-hi    Q-d-hi  E-d-hi    Q-f-hi  E-f-hi 
:EPH001:  0.1083  0.3875    0.2310  0.4926    1.4240  0.5192    0.0327  0.5496




:POS002: ATOM    2 X,Y,Z = 0.50000 0.50000 0.50000  MULT= 1  ZZ=  6.000  C         

       LMMAX  5
       LM=   0 0  4 0  4 4  6 0  6 4

:CHA002: TOTAL VALENCE CHARGE INSIDE SPHERE   2 =   3.6646    (RMT=  1.8300 )
:PCS002: PARTIAL CHARGES SPHERE =  2 S,P,D,F,      D-EG,D-T2G 
:QTL002: 1.2519 2.3770 0.0290 0.0051 0.0000 0.0000 0.0000 0.0095 0.0195 0.0000 0.0000 0.0000
        Q-s-low E-s-low   Q-p-low E-p-low   Q-d-low E-d-low   Q-f-low E-f-low
:EPL002:  1.2074 -0.0628    0.0253 -1.0203    0.0059 -1.6105    0.0020 -1.6736
        Q-s-hi  E-s-hi    Q-p-hi  E-p-hi    Q-d-hi  E-d-hi    Q-f-hi  E-f-hi 
:EPH002:  0.0445  0.4321    2.3516  0.5023    0.0231  0.5447    0.0032  0.5054

:CHA  : TOTAL VALENCE CHARGE INSIDE UNIT CELL =      16.000000

:SUM  : SUM OF EIGENVALUES =         -13.769727628



   QTL-B VALUE .EQ.    2.83679   in Band of energy    0.90486   ATOM=    1   L=  2
    Most likely no ghostbands, but adjust Energy-parameters for this ATOM and L


:WARN : QTL-B value eq.   2.84 in Band of energy   0.90486  ATOM=    1  L=  2
:WARN : You should change the E-parameter for this atom and L-value in case.in1 (or try the -in1new switch)

        1.ATOM      Ti                    4 CORE STATES
:1S 001: 1S                -356.552060682 Ry
:2S 001: 2S                 -38.229794628 Ry
:2PP001: 2P*                -31.699417514 Ry
:2P 001: 2P                 -31.275275118 Ry

        2.ATOM      C                     1 CORE STATES
:1S 002: 1S                 -18.785464555 Ry
:CINT001 Core Integral Atom   1   10.000000
:CINT002 Core Integral Atom   2    1.999997

       DENSITY AT NUCLEUS
        JATOM        VALENCE       SEMI-CORE          CORE           TOTAL
:RTO001:   1       97.200235        0.000000     8473.990910     8571.191145
:RTO002:   2        5.131045        0.000000      123.725100      128.856145
     
       CHARGES OF NEW CHARGE DENSITY
:NTO   : INTERSTITIAL CHARGE =     2.429312
:NTO001: CHARGE SPHERE  1    =    19.906126
:NTO002: CHARGE SPHERE  2    =     5.664549

:NEC01: NUCLEAR AND ELECTRONIC CHARGE     28.00000    27.99999
     
       CHARGES OF OLD CHARGE DENSITY
:OTO   : INTERSTITIAL CHARGE =     2.396269
:OTO001: CHARGE SPHERE  1    =    20.282449
:OTO002: CHARGE SPHERE  2    =     5.321282

:NEC02: NUCLEAR AND ELECTRONIC CHARGE     28.00000    28.00000
     
       CONVERGENCE TEST
:DTO001: DIFFERENCE IN SPHERE  1 =  0.3089032
:DTO002: DIFFERENCE IN SPHERE  2 =  0.2699975

:DIS  :  CHARGE DISTANCE       (  0.308903 for atom    1 spin 1)       0.289450
 
******************************************************
* MULTISECANT MIXING VER7 RELEASE 7.1.2              *
* Standard Mode with controls                        *
* Upper Bound on PW scaling active                   *
* Regularization       1.000E-04                     *
* Greed Lower Bound    2.500E-02                     *
* Trust Upper Limit    1.200E+01                     *
* Charge change trust active                         *
* Max Number of Memory Steps    8                    *
******************************************************
 
:PLANE:  INTERSTITIAL TOTAL      0.89680 RMS  1.515E-01 , 7.050E+00 %
:CHARG:  CLM CHARGE   /ATOM     51.85645 RMS  8.419E+00 , 1.268E+00 %
 
Step History
      DMIX        Red     Pred      Trust     Lambda    MagRel    MagAbs     Beta
  1  3.50E-02 -1.00E+00  1.00E+00 -1.00E+01  1.00E+00  3.50E-02  3.50E-02  1.00E+00
  2  2.50E-02  8.96E-01  1.00E+00 -1.00E+01  1.00E+00  2.50E-02  7.72E-02  1.00E+00
  3  6.25E-02  8.66E-01  1.00E+00  2.27E-01  2.50E+00  6.25E-02  2.44E-01  1.00E+00
  4  7.10E-02  6.60E-01  7.22E-01  4.06E-01  1.14E+00  2.27E-01  7.65E-01  1.00E+00
  5  9.17E-02 -1.00E+00  8.14E-01 -1.00E+01  1.00E+00  3.36E-01  7.25E-01  1.00E+00
  
:NORMS:  1/Froebius, Min, Max, Used   0.6257E+00  0.3210E+00  0.9734E+00  0.6768E+00
:INFO :  Number of Memory Steps    4 Skipping    0
:INFO :  SLambda=    1.6837442  Max    1.6837442

Eigenvalues, unscaled except for SY+YY
   #     SY Real        SY Imag          SS             YY         SY+YY Real      SY+YY Imag
   1   1.509765E+00   0.000000E+00   1.500631E+00   3.275773E+00   5.526755E+00   0.000000E+00
   2   3.147234E-01   0.000000E+00   6.550077E-02   7.210398E-01   1.542028E+00   0.000000E+00
   3   5.229191E-17   0.000000E+00   1.428644E-05   2.542268E-03   6.725814E-04   0.000000E+00
   4   1.767133E-04   0.000000E+00  -6.911789E-17   6.447655E-04   2.813044E-03   0.000000E+00
 
:INFO :  Singular value  5.537E+00 Weight  1.000E+00 Projection  1.089E+00
:INFO :  Singular value  1.539E+00 Weight  1.000E+00 Projection  4.988E-01
:INFO :  Singular value  2.817E-03 Weight  9.867E-01 Projection -5.739E-02
:INFO :  Singular value  6.717E-04 Weight  8.079E-01 Projection  9.363E+00
:RANK :  ACTIVE   3.79/4  =  94.86 %
 
:TRUST:  Step 6.67E-01  Charge 3.50E-02 (e)
:DTRUS:  Lambda    6.499E-01 Increment    7.276E-12 Iterations   101 DMIX  0.1082
:INFOA:  Angle SubSpace to MSR1      0.65
:DIRM :  MEMORY  4/8  RESCALE   20.02 RED  0.85 PRED  0.81 NEXT  0.19 
:INFO :  Limited by Atoms F by Step T

:DIRP :  |MSR1|= 9.069E-01 |PRATT|= 1.266E+00 ANGLE=  34.8 DEGREES
:DIRQ :  |MSR1|= 8.124E-01 |PRATT|= 1.315E+00 ANGLE=  35.6 DEGREES
:DIRT :  |MSR1|= 1.218E+00 |PRATT|= 1.826E+00 ANGLE=  35.4 DEGREES
:MIX  :   MSE1   REGULARIZATION: 3.28E-04  GREED: 0.1129  LMStep 0.80 0.667 Step           
     
       CHARGES OF MIXED CHARGE DENSITY
:CTO   : INTERSTITIAL CHARGE =     2.403710
:CTO001: CHARGE SPHERE  1    =    20.192884
:CTO002: CHARGE SPHERE  2    =     5.403406

:NEC03: NUCLEAR AND ELECTRONIC CHARGE     28.00000    28.00000

PW CHANGE     H    K    L      Current       Change    Residue
:PTO001:      0    0    0  6.55178808E-02  5.871E-04  1.896E-03
:PTO002:     -1   -1   -1 -1.24433283E-02  4.599E-03 -6.136E-04
:PTO003:      0    0   -2  9.26461536E-02  2.423E-03  6.492E-03
:PTO004:      0   -2   -2  5.23589406E-02 -2.903E-03 -2.851E-04
:PTO005:     -1   -1   -3  1.79611344E-02  1.412E-02  1.870E-02
:PTO006:     -2   -2   -2  6.76117622E-03 -2.428E-03 -2.444E-03
:PTO007:      0    0   -4  1.97644123E-03  5.023E-05 -3.203E-04
:PTO008:     -1   -3   -3  1.65382233E-03  1.671E-03  3.614E-03
:PTO009:      0   -2   -4 -8.38199426E-03 -2.951E-03 -4.662E-03
:PTO010:     -2   -2   -4 -1.10276980E-02 -3.296E-03 -4.983E-03
:PTO011:     -3   -3   -3 -4.68123504E-04 -4.397E-04 -3.231E-04
:PTO012:     -1   -1   -5  1.48813071E-03 -7.265E-06  2.557E-04

:ENE  : *WARNING** TOTAL ENERGY IN Ry =        -1783.96796255

 Flat Integration
 New Mode for Coulomb Integral
 Consistent 3/8+Simpson combinations
 Extension of core to zero
 LDM version in phi
 Fifth-order quadrature in outwin


            ---------
:ITE008:  8. ITERATION
            ---------

:NATO :    2 INDEPENDENT AND    2 TOTAL ATOMS IN UNITCELL
       SUBSTANCE: TiC                                                         

       LATTICE                      = F   
:POT  : POTENTIAL OPTION EX_PBE EC_PBE VX_PBE VC_PBE
:LAT  : LATTICE CONSTANTS=  8.17874  8.17874  8.17874    1.571    1.571    1.571
:VOL  : UNIT CELL VOLUME =     136.77254
       MODE OF CALCULATION IS       = RELA
       NON-SPINPOLARIZED CALCULATION
:IFFT  : FFT-parameters:   64   64   64 Factor: 2.00
       ATOMNUMBER=  1 Ti         VCOUL-ZERO =  0.48751E+00
       ATOMNUMBER=  2 C          VCOUL-ZERO =  0.58361E+00
:FIT001: LUSE= 13 SIGMA OF V-XC FIT FOR ATOM  1  0.1503480E-01
:FIT001: LUSE= 13 SIGMA OF V-XC FIT FOR ATOM  1  0.1503480E-01
:FIT002: LUSE= 13 SIGMA OF V-XC FIT FOR ATOM  2  0.7470651E-03
:FIT002: LUSE= 13 SIGMA OF V-XC FIT FOR ATOM  2  0.7470651E-03
:DEN  : DENSITY INTEGRAL  =          -754.06509830   (Ry)
       ELS_POTENTIAL_AT Z=0 and Z=0.5:  -2.82556  -2.82556
       ELS_POTENTIAL_AT Y=0 and Y=0.5:   0.00000   0.00000
:VZERO:v0,v0c,v0x  -4.07965  -2.82556  -1.25409 v5,v5c,v5x  -4.07965  -2.82556  -1.25409
:VZERY:v0,v0c,v0x  -0.86874   0.00000  -0.86874 v5,v5c,v5x  -0.86874   0.00000  -0.86874
:VZERX:v0,v0c,v0x  -0.86874   0.00000  -0.86874 v5,v5c,v5x  -0.86874   0.00000  -0.86874
:LMAX-WF:   10   Non-Spherical LMAX:   4

          ATOMIC SPHERE DEPENDENT PARAMETERS FOR ATOM  Ti        
:e__0001: OVERALL ENERGY PARAMETER IS    0.5107
          OVERALL BASIS SET ON ATOM IS LAPW
:E0_0001: E( 0)=    0.5107
             APW+lo
:E0_0001: E( 0)=   -3.4495   E(BOTTOM)=   -3.579   E(TOP)=   -3.320  2  3   185
             LOCAL ORBITAL
:E1_0001: E( 1)=    0.5107
             APW+lo
:E1_0001: E( 1)=   -1.7231   E(BOTTOM)=   -1.958   E(TOP)=   -1.488  1  2   186
             LOCAL ORBITAL
:E2_0001: E( 2)=    0.5107   E(BOTTOM)=    0.377   E(TOP)= -200.000  0 -1    77
             APW+lo

          ATOMIC SPHERE DEPENDENT PARAMETERS FOR ATOM  C         
:e__0002: OVERALL ENERGY PARAMETER IS    0.5107
          OVERALL BASIS SET ON ATOM IS LAPW
:E0_0002: E( 0)=    0.9107
             APW+lo
:E0_0002: E( 0)=   -0.7800   E(BOTTOM)=   -1.006   E(TOP)= -200.000  1 -1   149
             LOCAL ORBITAL
:E1_0002: E( 1)=    0.5107
             APW+lo

       K=   0.00000   0.00000   0.00000            1
:RKM  : MATRIX SIZE   155LOs:  18  RKM= 6.89  WEIGHT= 1.00  PGR:    
       EIGENVALUES ARE:
:EIG00001:      -3.4285747   -1.6683990   -1.6683990   -1.6683990   -0.2063847
:EIG00006:       0.7690987    0.7690987    0.7690987    0.8294030    0.8294030
:EIG00011:       0.8294030    0.8477894    0.8477894    1.4798749    1.7385373
       ********************************************************

:KPT   :      NUMBER OF K-POINTS:     8
:GAP (global)   :    0.0    Ry =     0.0   eV (metal)
         Bandranges (emin - emax) and occupancy:
:BAN00001:   1   -3.428575   -3.421087  2.00000000
:BAN00002:   2   -1.706358   -1.668399  2.00000000
:BAN00003:   3   -1.691271   -1.668399  2.00000000
:BAN00004:   4   -1.681814   -1.668399  2.00000000
:BAN00005:   5   -0.206385    0.051348  2.00000000
:BAN00006:   6    0.277813    0.769099  1.99436140
:BAN00007:   7    0.477812    0.769099  1.99583899
:BAN00008:   8    0.497927    0.769099  1.86997964
:BAN00009:   9    0.680317    0.937994  0.14102535
:BAN00010:  10    0.829403    0.956925 -0.00113730
:BAN00011:  11    0.829403    1.023124 -0.00006807
:BAN00012:  12    0.847789    1.310629  0.00000000
:BAN00013:  13    0.847789    1.325341  0.00000000
:BAN00014:  14    1.325341    1.744447  0.00000000
:BAN00015:  15    1.689614    1.826674  0.00000000
:BAN00016:  16    1.803025    2.038825  0.00000000
        Energy to separate low and high energystates:    0.22781


:NOE  : NUMBER OF ELECTRONS          =  16.000

:FER  : F E R M I - ENERGY(TETRAH.M.)=   0.7140625991
:GMA  : POTENTIAL AND CHARGE CUT-OFF  12.00 Ry**.5




:POS001: ATOM    1 X,Y,Z = 0.00000 0.00000 0.00000  MULT= 1  ZZ= 22.000  Ti        

       LMMAX  5
       LM=   0 0  4 0  4 4  6 0  6 4

:CHA001: TOTAL VALENCE CHARGE INSIDE SPHERE   1 =  10.1644    (RMT=  2.2400 )
:PCS001: PARTIAL CHARGES SPHERE =  1 S,P,D,F,      D-EG,D-T2G 
:QTL001: 2.1611 6.1560 1.8037 0.0354 0.0000 0.0000 0.0000 0.9772 0.8264 0.0000 0.0000 0.0000
        Q-s-low E-s-low   Q-p-low E-p-low   Q-d-low E-d-low   Q-f-low E-f-low
:EPL001:  2.0546 -3.3085    5.9372 -1.6576    0.1212 -0.0117    0.0071 -0.0347
        Q-s-hi  E-s-hi    Q-p-hi  E-p-hi    Q-d-hi  E-d-hi    Q-f-hi  E-f-hi 
:EPH001:  0.1065  0.3989    0.2187  0.4978    1.6825  0.5354    0.0283  0.5521




:POS002: ATOM    2 X,Y,Z = 0.50000 0.50000 0.50000  MULT= 1  ZZ=  6.000  C         

       LMMAX  5
       LM=   0 0  4 0  4 4  6 0  6 4

:CHA002: TOTAL VALENCE CHARGE INSIDE SPHERE   2 =   3.3880    (RMT=  1.8300 )
:PCS002: PARTIAL CHARGES SPHERE =  2 S,P,D,F,      D-EG,D-T2G 
:QTL002: 1.2259 2.1204 0.0347 0.0054 0.0000 0.0000 0.0000 0.0098 0.0249 0.0000 0.0000 0.0000
        Q-s-low E-s-low   Q-p-low E-p-low   Q-d-low E-d-low   Q-f-low E-f-low
:EPL002:  1.1814 -0.0375    0.0250 -0.9770    0.0057 -1.6194    0.0019 -1.6880
        Q-s-hi  E-s-hi    Q-p-hi  E-p-hi    Q-d-hi  E-d-hi    Q-f-hi  E-f-hi 
:EPH002:  0.0445  0.4442    2.0954  0.5073    0.0290  0.5670    0.0034  0.5174

:CHA  : TOTAL VALENCE CHARGE INSIDE UNIT CELL =      16.000000

:SUM  : SUM OF EIGENVALUES =         -13.940848904



   QTL-B VALUE .EQ.    2.51997   in Band of energy    0.87953   ATOM=    1   L=  2
    Most likely no ghostbands, but adjust Energy-parameters for this ATOM and L


:WARN : QTL-B value eq.   2.52 in Band of energy   0.87953  ATOM=    1  L=  2
:WARN : You should change the E-parameter for this atom and L-value in case.in1 (or try the -in1new switch)

        1.ATOM      Ti                    4 CORE STATES
:1S 001: 1S                -356.579262969 Ry
:2S 001: 2S                 -38.274834031 Ry
:2PP001: 2P*                -31.742517314 Ry
:2P 001: 2P                 -31.318494308 Ry

        2.ATOM      C                     1 CORE STATES
:1S 002: 1S                 -18.739412007 Ry
:CINT001 Core Integral Atom   1   10.000000
:CINT002 Core Integral Atom   2    1.999997

       DENSITY AT NUCLEUS
        JATOM        VALENCE       SEMI-CORE          CORE           TOTAL
:RTO001:   1       97.485975        0.000000     8473.814455     8571.300430
:RTO002:   2        4.959418        0.000000      123.789055      128.748474
     
       CHARGES OF NEW CHARGE DENSITY
:NTO   : INTERSTITIAL CHARGE =     2.447597
:NTO001: CHARGE SPHERE  1    =    20.164405
:NTO002: CHARGE SPHERE  2    =     5.387987

:NEC01: NUCLEAR AND ELECTRONIC CHARGE     28.00000    27.99999
     
       CHARGES OF OLD CHARGE DENSITY
:OTO   : INTERSTITIAL CHARGE =     2.403710
:OTO001: CHARGE SPHERE  1    =    20.192884
:OTO002: CHARGE SPHERE  2    =     5.403406

:NEC02: NUCLEAR AND ELECTRONIC CHARGE     28.00000    28.00000
     
       CONVERGENCE TEST
:DTO001: DIFFERENCE IN SPHERE  1 =  0.0694922
:DTO002: DIFFERENCE IN SPHERE  2 =  0.0225734

:DIS  :  CHARGE DISTANCE       (  0.069492 for atom    1 spin 1)       0.046033
 
******************************************************
* MULTISECANT MIXING VER7 RELEASE 7.1.2              *
* Standard Mode with controls                        *
* Upper Bound on PW scaling active                   *
* Regularization       1.000E-04                     *
* Greed Lower Bound    2.500E-02                     *
* Trust Upper Limit    1.200E+01                     *
* Charge change trust active                         *
* Max Number of Memory Steps    8                    *
******************************************************
 
:PLANE:  INTERSTITIAL TOTAL      0.90599 RMS  4.025E-02 , 1.848E+00 %
[...]
:E1_0002: E( 1)=    0.5099
             APW+lo

       K=   0.00000   0.00000   0.00000            1
:RKM  : MATRIX SIZE   155LOs:  18  RKM= 6.89  WEIGHT= 1.00  PGR:    
       EIGENVALUES ARE:
:EIG00001:      -3.4454293   -1.6840049   -1.6840049   -1.6840049   -0.2078615
:EIG00006:       0.7605984    0.7605984    0.7605984    0.8264799    0.8264799
:EIG00011:       0.8264799    0.8370627    0.8370627    1.4783025    1.7409788
       ********************************************************

:KPT   :      NUMBER OF K-POINTS:     8
:GAP (global)   :    0.0    Ry =     0.0   eV (metal)
         Bandranges (emin - emax) and occupancy:
:BAN00001:   1   -3.445429   -3.438072  2.00000000
:BAN00002:   2   -1.721206   -1.684005  2.00000000
:BAN00003:   3   -1.706434   -1.684005  2.00000000
:BAN00004:   4   -1.697162   -1.684005  2.00000000
:BAN00005:   5   -0.207861    0.048528  2.00000000
:BAN00006:   6    0.276053    0.760598  1.99475267
:BAN00007:   7    0.475075    0.760598  1.99631982
:BAN00008:   8    0.493029    0.760598  1.86933605
:BAN00009:   9    0.675994    0.926132  0.14071657
:BAN00010:  10    0.826480    0.944665 -0.00104421
:BAN00011:  11    0.826480    1.012302 -0.00008090
:BAN00012:  12    0.837063    1.310889  0.00000000
:BAN00013:  13    0.837063    1.313884  0.00000000
:BAN00014:  14    1.313884    1.740333  0.00000000
:BAN00015:  15    1.686045    1.824702  0.00000000
:BAN00016:  16    1.802495    2.035426  0.00000000
        Energy to separate low and high energystates:    0.22605


:NOE  : NUMBER OF ELECTRONS          =  16.000

:FER  : F E R M I - ENERGY(TETRAH.M.)=   0.7084415304
:GMA  : POTENTIAL AND CHARGE CUT-OFF  12.00 Ry**.5




:POS001: ATOM    1 X,Y,Z = 0.00000 0.00000 0.00000  MULT= 1  ZZ= 22.000  Ti        

       LMMAX  5
       LM=   0 0  4 0  4 4  6 0  6 4

:CHA001: TOTAL VALENCE CHARGE INSIDE SPHERE   1 =  10.1942    (RMT=  2.2400 )
:PCS001: PARTIAL CHARGES SPHERE =  1 S,P,D,F,      D-EG,D-T2G 
:QTL001: 2.1606 6.1558 1.8346 0.0350 0.0000 0.0000 0.0000 0.9930 0.8416 0.0000 0.0000 0.0000
        Q-s-low E-s-low   Q-p-low E-p-low   Q-d-low E-d-low   Q-f-low E-f-low
:EPL001:  2.0546 -3.3253    5.9392 -1.6729    0.1223 -0.0142    0.0071 -0.0369
        Q-s-hi  E-s-hi    Q-p-hi  E-p-hi    Q-d-hi  E-d-hi    Q-f-hi  E-f-hi 
:EPH001:  0.1060  0.3961    0.2166  0.4944    1.7123  0.5312    0.0278  0.5480




:POS002: ATOM    2 X,Y,Z = 0.50000 0.50000 0.50000  MULT= 1  ZZ=  6.000  C         

       LMMAX  5
       LM=   0 0  4 0  4 4  6 0  6 4

:CHA002: TOTAL VALENCE CHARGE INSIDE SPHERE   2 =   3.3740    (RMT=  1.8300 )
:PCS002: PARTIAL CHARGES SPHERE =  2 S,P,D,F,      D-EG,D-T2G 
:QTL002: 1.2259 2.1067 0.0345 0.0054 0.0000 0.0000 0.0000 0.0098 0.0247 0.0000 0.0000 0.0000
        Q-s-low E-s-low   Q-p-low E-p-low   Q-d-low E-d-low   Q-f-low E-f-low
:EPL002:  1.1821 -0.0397    0.0246 -0.9812    0.0056 -1.6315    0.0019 -1.7006
        Q-s-hi  E-s-hi    Q-p-hi  E-p-hi    Q-d-hi  E-d-hi    Q-f-hi  E-f-hi 
:EPH002:  0.0438  0.4417    2.0820  0.5032    0.0289  0.5623    0.0034  0.5137

:CHA  : TOTAL VALENCE CHARGE INSIDE UNIT CELL =      16.000000

:SUM  : SUM OF EIGENVALUES =         -14.094496286



   QTL-B VALUE .EQ.    2.44227   in Band of energy    0.86906   ATOM=    1   L=  2
    Most likely no ghostbands, but adjust Energy-parameters for this ATOM and L


:WARN : QTL-B value eq.   2.44 in Band of energy   0.86906  ATOM=    1  L=  2
:WARN : You should change the E-parameter for this atom and L-value in case.in1 (or try the -in1new switch)

        1.ATOM      Ti                    4 CORE STATES
:1S 001: 1S                -356.625375213 Ry
:2S 001: 2S                 -38.311854371 Ry
:2PP001: 2P*                -31.780740632 Ry
:2P 001: 2P                 -31.356626312 Ry

        2.ATOM      C                     1 CORE STATES
:1S 002: 1S                 -18.754255459 Ry
:CINT001 Core Integral Atom   1   10.000000
:CINT002 Core Integral Atom   2    1.999997

       DENSITY AT NUCLEUS
        JATOM        VALENCE       SEMI-CORE          CORE           TOTAL
:RTO001:   1       97.668452        0.000000     8473.980087     8571.648538
:RTO002:   2        4.966224        0.000000      123.797173      128.763397
     
       CHARGES OF NEW CHARGE DENSITY
:NTO   : INTERSTITIAL CHARGE =     2.431753
:NTO001: CHARGE SPHERE  1    =    20.194242
:NTO002: CHARGE SPHERE  2    =     5.373993

:NEC01: NUCLEAR AND ELECTRONIC CHARGE     28.00000    27.99999
     
       CHARGES OF OLD CHARGE DENSITY
:OTO   : INTERSTITIAL CHARGE =     2.431565
:OTO001: CHARGE SPHERE  1    =    20.175937
:OTO002: CHARGE SPHERE  2    =     5.392498

:NEC02: NUCLEAR AND ELECTRONIC CHARGE     28.00000    28.00000
     
       CONVERGENCE TEST
:DTO001: DIFFERENCE IN SPHERE  1 =  0.0149610
:DTO002: DIFFERENCE IN SPHERE  2 =  0.0142507

:DIS  :  CHARGE DISTANCE       (  0.014961 for atom    1 spin 1)       0.014606
 
******************************************************
* MULTISECANT MIXING VER7 RELEASE 7.1.2              *
* Standard Mode with controls                        *
* Upper Bound on PW scaling active                   *
* Regularization       1.000E-04                     *
* Greed Lower Bound    2.500E-02                     *
* Trust Upper Limit    1.200E+01                     *
* Charge change trust active                         *
* Max Number of Memory Steps    8                    *
******************************************************
 
:PLANE:  INTERSTITIAL TOTAL      0.90791 RMS  7.997E-03 , 3.623E-01 %
:CHARG:  CLM CHARGE   /ATOM     51.84784 RMS  7.114E-01 , 1.073E-01 %
 
Step History
      DMIX        Red     Pred      Trust     Lambda    MagRel    MagAbs     Beta
  2  2.50E-02  8.96E-01  1.00E+00 -1.00E+01  1.00E+00  2.50E-02  7.72E-02  1.00E+00
  3  6.25E-02  8.66E-01  1.00E+00  2.27E-01  2.50E+00  6.25E-02  2.44E-01  1.00E+00
  4  7.10E-02  6.60E-01  7.22E-01  4.06E-01  1.14E+00  2.27E-01  7.65E-01  1.00E+00
  5  9.17E-02  8.51E-01  8.14E-01  6.67E-01  1.68E+00  3.36E-01  7.25E-01  1.00E+00
  6  1.13E-01  2.67E-01  1.92E-01  1.53E+00  6.42E-01  6.67E-01  1.22E+00  1.00E+00
  7  1.53E-01  9.09E-01  6.11E-01  1.37E+00  1.00E+00  5.78E-01  2.82E-01  1.00E+00
  8  2.00E-01  7.19E-01  2.18E-01  1.47E+00  1.42E+00  2.75E-01  1.24E-01  8.00E-01
  9  2.59E-01  6.38E-01  2.89E-01  1.54E+00  1.40E+00  2.72E-01  8.87E-02  7.20E-01
 10  3.00E-01 -1.00E+00  3.56E-01 -1.00E+01  1.00E+00  2.86E-01  6.04E-02  6.48E-01
  
:NORMS:  1/Froebius, Min, Max, Used   0.8097E+00  0.5163E+00  0.9840E+00  0.8614E+00
:INFO :  Number of Memory Steps    8 Skipping    1
:INFO :  SLambda=    1.0177139  Max    1.3516041

Eigenvalues, unscaled except for SY+YY
   #     SY Real        SY Imag          SS             YY         SY+YY Real      SY+YY Imag
   1   2.744464E+00   4.241846E-01   3.307873E+00   4.457989E+00   6.545904E+00   0.000000E+00
   2   2.744464E+00  -4.241846E-01   1.889652E+00   3.112134E+00   6.545904E+00   0.000000E+00
   3   1.216514E-01   0.000000E+00   2.808711E-02   3.947225E-01   5.817146E-01   0.000000E+00
   4   2.605291E-02   0.000000E+00   1.976486E-02   3.368052E-02   6.148509E-02   0.000000E+00
   5   1.436470E-04   0.000000E+00   5.285520E-05   8.877194E-04   9.868335E-04   0.000000E+00
   6   1.165893E-04   0.000000E+00   1.821909E-05   4.596491E-04   6.255230E-04   0.000000E+00
   7   9.736569E-06   0.000000E+00   9.025411E-07   1.263745E-04   1.333051E-04   0.000000E+00
   8   1.014242E-06   0.000000E+00   6.759655E-07   9.152977E-07   1.642411E-06   0.000000E+00
 
:DLIM :  Decreased using Multisecant Shanno-Phua
:INFO :  Singular value  7.127E+00 Weight  1.000E+00 Projection -3.869E-02
:INFO :  Singular value  6.020E+00 Weight  1.000E+00 Projection  4.738E-02
:INFO :  Singular value  5.815E-01 Weight  1.000E+00 Projection  8.960E-03
:INFO :  Singular value  6.181E-02 Weight  9.999E-01 Projection -2.817E-01
:INFO :  Singular value  9.897E-04 Weight  8.313E-01 Projection  8.924E-01
:INFO :  Singular value  6.233E-04 Weight  6.616E-01 Projection  1.901E-02
:INFO :  Singular value  1.331E-04 Weight  8.190E-02 Projection  6.643E-04
:INFO :  Singular value  1.635E-06 Weight  1.345E-05 Projection -4.407E-05
:RANK :  ACTIVE   5.57/8  =  69.68 %
 
:DLIM :  Beta Active  6.180E-01
:TRUST:  Step 1.74E+00  Charge 3.50E-02 (e)
:DIRM :  MEMORY  8/8  RESCALE   23.03 RED  0.63 PRED  0.36 NEXT  0.39 BETA  0.62
:DIRP :  |MSR1|= 9.363E-03 |PRATT|= 7.573E-02 ANGLE=  31.6 DEGREES
:DIRQ :  |MSR1|= 2.515E-02 |PRATT|= 1.113E-01 ANGLE=  22.2 DEGREES
:DIRT :  |MSR1|= 2.684E-02 |PRATT|= 1.346E-01 ANGLE=  27.8 DEGREES
:MIX  :   MSE1   REGULARIZATION: 4.46E-04  GREED: 0.3000  Newton 1.00 0.199                
     
       CHARGES OF MIXED CHARGE DENSITY
:CTO   : INTERSTITIAL CHARGE =     2.432117
:CTO001: CHARGE SPHERE  1    =    20.176781
:CTO002: CHARGE SPHERE  2    =     5.391102

:NEC03: NUCLEAR AND ELECTRONIC CHARGE     28.00000    28.00000

PW CHANGE     H    K    L      Current       Change    Residue
:PTO001:      0    0    0  6.58328394E-02 -1.343E-06 -6.163E-05
:PTO002:     -1   -1   -1 -9.82887148E-03  4.965E-05  6.218E-04
:PTO003:      0    0   -2  9.22217891E-02 -4.625E-05 -3.382E-04
:PTO004:      0   -2   -2  5.20511348E-02  5.185E-05  7.981E-05
:PTO005:     -1   -1   -3  2.10756985E-02 -6.986E-05 -3.648E-04
:PTO006:     -2   -2   -2  6.34968214E-03  1.722E-05  4.050E-05
:PTO007:      0    0   -4  1.73374175E-03 -1.273E-05 -3.926E-05
:PTO008:     -1   -3   -3  2.05937645E-03  2.925E-06 -8.634E-05
:PTO009:      0   -2   -4 -9.06895299E-03  5.339E-06  5.360E-05
:PTO010:     -2   -2   -4 -1.16224637E-02  1.277E-05  8.151E-05
:PTO011:     -3   -3   -3 -5.70122361E-04  2.346E-06  1.067E-06
:PTO012:     -1   -1   -5  1.09539819E-03 -2.886E-05 -1.086E-04

:ENE  : *WARNING** TOTAL ENERGY IN Ry =        -1783.95120513


:LABEL1: Calculations in /W/em250772/TiC-test
:LABEL2: on summer at Thu Oct 26 14:03:34 CEST 2017
:LABEL3: using WIEN2k_17.1 (Release 30/6/2017) in /home/em250772/WIEN2k_17
:LABEL4: using the command: run -i 2 -ee 0.00001

:LABEL1: Calculations in /W/em250772/TiC-test
:LABEL2: on summer at Thu Oct 26 14:03:40 CEST 2017
:LABEL3: using WIEN2k_17.1 (Release 30/6/2017) in /home/em250772/WIEN2k_17
:LABEL4: using the command: run -i 2 -ec 0.00001

:LABEL1: Calculations in /W/em250772/TiC-test
:LABEL2: on summer at Thu Oct 26 14:03:58 CEST 2017
:LABEL3: using WIEN2k_17.1 (Release 30/6/2017) in /home/em250772/WIEN2k_17
:LABEL4: using the command: run -i 2 -ec 0.00001
 Flat Integration
 New Mode for Coulomb Integral
 Consistent 3/8+Simpson combinations
 Extension of core to zero
 LDM version in phi
 Fifth-order quadrature in outwin


            ---------
:ITE013: 13. ITERATION
            ---------

:NATO :    2 INDEPENDENT AND    2 TOTAL ATOMS IN UNITCELL
       SUBSTANCE: TiC                                                         

       LATTICE                      = F   
:POT  : POTENTIAL OPTION EX_PBE EC_PBE VX_PBE VC_PBE
:LAT  : LATTICE CONSTANTS=  8.17874  8.17874  8.17874    1.571    1.571    1.571
:VOL  : UNIT CELL VOLUME =     136.77254
       MODE OF CALCULATION IS       = RELA
       NON-SPINPOLARIZED CALCULATION
:IFFT  : FFT-parameters:   64   64   64 Factor: 2.00
       ATOMNUMBER=  1 Ti         VCOUL-ZERO =  0.49075E+00
       ATOMNUMBER=  2 C          VCOUL-ZERO =  0.58597E+00
:FIT001: LUSE= 13 SIGMA OF V-XC FIT FOR ATOM  1  0.1471678E-01
:FIT001: LUSE= 13 SIGMA OF V-XC FIT FOR ATOM  1  0.1471678E-01
:FIT002: LUSE= 13 SIGMA OF V-XC FIT FOR ATOM  2  0.6703025E-03
:FIT002: LUSE= 13 SIGMA OF V-XC FIT FOR ATOM  2  0.6703025E-03
:DEN  : DENSITY INTEGRAL  =          -753.49540181   (Ry)
       ELS_POTENTIAL_AT Z=0 and Z=0.5:  -2.84753  -2.84753
       ELS_POTENTIAL_AT Y=0 and Y=0.5:   0.00000   0.00000
:VZERO:v0,v0c,v0x  -4.09937  -2.84753  -1.25184 v5,v5c,v5x  -4.09937  -2.84753  -1.25184
:VZERY:v0,v0c,v0x  -0.87074   0.00000  -0.87074 v5,v5c,v5x  -0.87074   0.00000  -0.87074
:VZERX:v0,v0c,v0x  -0.87074   0.00000  -0.87074 v5,v5c,v5x  -0.87074   0.00000  -0.87074
:LMAX-WF:   10   Non-Spherical LMAX:   4

          ATOMIC SPHERE DEPENDENT PARAMETERS FOR ATOM  Ti        
:e__0001: OVERALL ENERGY PARAMETER IS    0.5089
          OVERALL BASIS SET ON ATOM IS LAPW
:E0_0001: E( 0)=    0.5089
             APW+lo
:E0_0001: E( 0)=   -3.4657   E(BOTTOM)=   -3.595   E(TOP)=   -3.337  2  3   187
             LOCAL ORBITAL
:E1_0001: E( 1)=    0.5089
             APW+lo
:E1_0001: E( 1)=   -1.7378   E(BOTTOM)=   -1.971   E(TOP)=   -1.505  1  2   183
             LOCAL ORBITAL
:E2_0001: E( 2)=    0.5089   E(BOTTOM)=    0.368   E(TOP)= -200.000  0 -1    83
             APW+lo

          ATOMIC SPHERE DEPENDENT PARAMETERS FOR ATOM  C         
:e__0002: OVERALL ENERGY PARAMETER IS    0.5089
          OVERALL BASIS SET ON ATOM IS LAPW
:E0_0002: E( 0)=    0.9089
             APW+lo
:E0_0002: E( 0)=   -0.7800   E(BOTTOM)=   -1.009   E(TOP)= -200.000  1 -1   150
             LOCAL ORBITAL
:E1_0002: E( 1)=    0.5089
             APW+lo

       K=   0.00000   0.00000   0.00000            1
:RKM  : MATRIX SIZE   155LOs:  18  RKM= 6.89  WEIGHT= 1.00  PGR:    
       EIGENVALUES ARE:
:EIG00001:      -3.4448641   -1.6834719   -1.6834719   -1.6834719   -0.2081752
:EIG00006:       0.7609261    0.7609261    0.7609261    0.8259431    0.8259431
:EIG00011:       0.8259431    0.8374323    0.8374323    1.4779636    1.7409163
       ********************************************************

:KPT   :      NUMBER OF K-POINTS:     8
:GAP (global)   :    0.0    Ry =     0.0   eV (metal)
         Bandranges (emin - emax) and occupancy:
:BAN00001:   1   -3.444864   -3.437502  2.00000000
:BAN00002:   2   -1.720700   -1.683472  2.00000000
:BAN00003:   3   -1.705915   -1.683472  2.00000000
:BAN00004:   4   -1.696638   -1.683472  2.00000000
:BAN00005:   5   -0.208175    0.048119  2.00000000
:BAN00006:   6    0.275901    0.760926  1.99469948
:BAN00007:   7    0.474921    0.760926  1.99625153
:BAN00008:   8    0.492911    0.760926  1.86942958
:BAN00009:   9    0.675803    0.926558  0.14075511
:BAN00010:  10    0.825943    0.945114 -0.00105636
:BAN00011:  11    0.825943    1.012560 -0.00007933
:BAN00012:  12    0.837432    1.310751  0.00000000
:BAN00013:  13    0.837432    1.313939  0.00000000
:BAN00014:  14    1.313939    1.740269  0.00000000
:BAN00015:  15    1.686061    1.824297  0.00000000
:BAN00016:  16    1.802485    2.035536  0.00000000
        Energy to separate low and high energystates:    0.22590


:NOE  : NUMBER OF ELECTRONS          =  16.000

:FER  : F E R M I - ENERGY(TETRAH.M.)=   0.7084023246
:GMA  : POTENTIAL AND CHARGE CUT-OFF  12.00 Ry**.5




:POS001: ATOM    1 X,Y,Z = 0.00000 0.00000 0.00000  MULT= 1  ZZ= 22.000  Ti        

       LMMAX  5
       LM=   0 0  4 0  4 4  6 0  6 4

:CHA001: TOTAL VALENCE CHARGE INSIDE SPHERE   1 =  10.1910    (RMT=  2.2400 )
:PCS001: PARTIAL CHARGES SPHERE =  1 S,P,D,F,      D-EG,D-T2G 
:QTL001: 2.1606 6.1558 1.8314 0.0350 0.0000 0.0000 0.0000 0.9915 0.8399 0.0000 0.0000 0.0000
        Q-s-low E-s-low   Q-p-low E-p-low   Q-d-low E-d-low   Q-f-low E-f-low
:EPL001:  2.0545 -3.3249    5.9391 -1.6724    0.1221 -0.0145    0.0071 -0.0373
        Q-s-hi  E-s-hi    Q-p-hi  E-p-hi    Q-d-hi  E-d-hi    Q-f-hi  E-f-hi 
:EPH001:  0.1061  0.3959    0.2167  0.4942    1.7092  0.5311    0.0279  0.5479




:POS002: ATOM    2 X,Y,Z = 0.50000 0.50000 0.50000  MULT= 1  ZZ=  6.000  C         

       LMMAX  5
       LM=   0 0  4 0  4 4  6 0  6 4

:CHA002: TOTAL VALENCE CHARGE INSIDE SPHERE   2 =   3.3773    (RMT=  1.8300 )
:PCS002: PARTIAL CHARGES SPHERE =  2 S,P,D,F,      D-EG,D-T2G 
:QTL002: 1.2263 2.1096 0.0345 0.0054 0.0000 0.0000 0.0000 0.0098 0.0247 0.0000 0.0000 0.0000
        Q-s-low E-s-low   Q-p-low E-p-low   Q-d-low E-d-low   Q-f-low E-f-low
:EPL002:  1.1825 -0.0401    0.0246 -0.9819    0.0056 -1.6314    0.0019 -1.7004
        Q-s-hi  E-s-hi    Q-p-hi  E-p-hi    Q-d-hi  E-d-hi    Q-f-hi  E-f-hi 
:EPH002:  0.0438  0.4416    2.0849  0.5031    0.0288  0.5623    0.0034  0.5135

:CHA  : TOTAL VALENCE CHARGE INSIDE UNIT CELL =      16.000000

:SUM  : SUM OF EIGENVALUES =         -14.091806717



   QTL-B VALUE .EQ.    2.45742   in Band of energy    0.86946   ATOM=    1   L=  2
    Most likely no ghostbands, but adjust Energy-parameters for this ATOM and L


:WARN : QTL-B value eq.   2.46 in Band of energy   0.86946  ATOM=    1  L=  2
:WARN : You should change the E-parameter for this atom and L-value in case.in1 (or try the -in1new switch)

        1.ATOM      Ti                    4 CORE STATES
:1S 001: 1S                -356.624516043 Ry
:2S 001: 2S                 -38.311005017 Ry
:2PP001: 2P*                -31.779886465 Ry
:2P 001: 2P                 -31.355772552 Ry

        2.ATOM      C                     1 CORE STATES
:1S 002: 1S                 -18.755053379 Ry
:CINT001 Core Integral Atom   1   10.000000
:CINT002 Core Integral Atom   2    1.999997

       DENSITY AT NUCLEUS
        JATOM        VALENCE       SEMI-CORE          CORE           TOTAL
:RTO001:   1       97.663889        0.000000     8473.979589     8571.643477
:RTO002:   2        4.969068        0.000000      123.796013      128.765081
     
       CHARGES OF NEW CHARGE DENSITY
:NTO   : INTERSTITIAL CHARGE =     2.431678
:NTO001: CHARGE SPHERE  1    =    20.191009
:NTO002: CHARGE SPHERE  2    =     5.377302

:NEC01: NUCLEAR AND ELECTRONIC CHARGE     28.00000    27.99999
     
       CHARGES OF OLD CHARGE DENSITY
:OTO   : INTERSTITIAL CHARGE =     2.432117
:OTO001: CHARGE SPHERE  1    =    20.176781
:OTO002: CHARGE SPHERE  2    =     5.391102

:NEC02: NUCLEAR AND ELECTRONIC CHARGE     28.00000    28.00000
     
       CONVERGENCE TEST
:DTO001: DIFFERENCE IN SPHERE  1 =  0.0116404
:DTO002: DIFFERENCE IN SPHERE  2 =  0.0104645

:DIS  :  CHARGE DISTANCE       (  0.011640 for atom    1 spin 1)       0.011052
 
******************************************************
* MULTISECANT MIXING VER7 RELEASE 7.1.2              *
* Standard Mode with controls                        *
* Upper Bound on PW scaling active                   *
* Regularization       1.000E-04                     *
* Greed Lower Bound    2.500E-02                     *
* Trust Upper Limit    1.200E+01                     *
* Charge change trust active                         *
* Max Number of Memory Steps    8                    *
******************************************************
 
:INFO : Forcing a restart
:PLANE:  INTERSTITIAL TOTAL      0.90780 RMS  6.004E-03 , 2.720E-01 %
:CHARG:  CLM CHARGE   /ATOM     51.84787 RMS  5.377E-01 , 8.112E-02 %
 
Step History
      DMIX        Red     Pred      Trust     Lambda    MagRel    MagAbs     Beta
  1  3.50E-02 -1.00E+00  1.00E+00 -1.00E+01  1.00E+00  3.50E-02  3.50E-02  1.00E+00
:INFO :  Note, Pratt in use
:DIRM :  MEMORY  0/ 8 RESCALE    1.00
:MIX  :   PRATT  REGULARIZATION: 1.00E-04  GREED: 0.1500
     
       CHARGES OF MIXED CHARGE DENSITY
:CTO   : INTERSTITIAL CHARGE =     2.432053
:CTO001: CHARGE SPHERE  1    =    20.178915
:CTO002: CHARGE SPHERE  2    =     5.389032

:NEC03: NUCLEAR AND ELECTRONIC CHARGE     28.00000    28.00000

PW CHANGE     H    K    L      Current       Change    Residue
:PTO001:      0    0    0  6.58255042E-02 -7.335E-06 -4.890E-05
:PTO002:     -1   -1   -1 -9.75818246E-03  7.069E-05  4.713E-04
:PTO003:      0    0   -2  9.21860359E-02 -3.575E-05 -2.384E-04
:PTO004:      0   -2   -2  5.20617259E-02  1.059E-05  7.061E-05
:PTO005:     -1   -1   -3  2.10318793E-02 -4.382E-05 -2.921E-04
:PTO006:     -2   -2   -2  6.35428305E-03  4.601E-06  3.067E-05
:PTO007:      0    0   -4  1.72950417E-03 -4.238E-06 -2.825E-05
:PTO008:     -1   -3   -3  2.04892704E-03 -1.045E-05 -6.966E-05
:PTO009:      0   -2   -4 -9.06328246E-03  5.671E-06  3.780E-05
:PTO010:     -2   -2   -4 -1.16138308E-02  8.633E-06  5.755E-05
:PTO011:     -3   -3   -3 -5.69809001E-04  3.134E-07  2.089E-06
:PTO012:     -1   -1   -5  1.08426171E-03 -1.114E-05 -7.424E-05

:ENE  : *WARNING** TOTAL ENERGY IN Ry =        -1783.95122054

